# vtk DataFile Version 3.0
vtk output
ASCII
DATASET POLYDATA
POINTS 400 float
121.467 104.169 67.9953 121.167 104.169 67.9953 120.867 104.169 67.9953 
120.567 104.169 67.9953 120.267 104.169 67.9953 119.967 104.169 67.9953 
119.667 104.169 67.9953 119.367 104.169 67.9953 119.067 104.169 67.9953 
118.767 104.169 67.9954 118.467 104.169 67.9954 118.167 104.169 67.9954 
117.867 104.169 67.9954 117.567 104.169 67.9954 117.267 104.169 67.9954 
116.967 104.169 67.9954 116.667 104.169 67.9954 116.367 104.169 67.9954 
116.067 104.169 67.9955 115.767 104.169 67.9955 115.467 104.169 67.9955 
115.167 104.169 67.9955 114.867 104.169 67.9955 114.567 104.169 67.9955 
114.267 104.169 67.9955 113.967 104.169 67.9955 113.667 104.169 67.9956 
113.367 104.169 67.9956 113.067 104.169 67.9956 112.767 104.169 67.9956 
112.467 104.169 67.9956 112.167 104.169 67.9956 111.867 104.169 67.9956 
111.567 104.169 67.9956 111.267 104.169 67.9956 110.967 104.169 67.9957 
110.667 104.169 67.9957 110.367 104.169 67.9957 110.067 104.169 67.9957 
109.767 104.169 67.9957 109.467 104.169 67.9957 109.167 104.169 67.9957 
108.867 104.169 67.9957 108.567 104.169 67.9957 108.267 104.169 67.9958 
107.967 104.169 67.9958 107.667 104.169 67.9958 107.367 104.169 67.9958 
107.067 104.169 67.9958 106.767 104.169 67.9958 106.467 104.169 67.9958 
106.167 104.169 67.9958 105.867 104.169 67.9958 105.567 104.169 67.9958 
105.267 104.169 67.9959 104.967 104.169 67.9959 104.667 104.169 67.9959 
104.367 104.169 67.9959 104.067 104.169 67.9959 103.767 104.169 67.9959 
103.467 104.169 67.9959 103.167 104.169 67.9959 102.867 104.169 67.9959 
102.567 104.169 67.996 102.267 104.169 67.996 101.967 104.169 67.996 
101.667 104.169 67.996 101.367 104.169 67.996 101.067 104.169 67.996 
100.767 104.169 67.996 100.467 104.169 67.996 100.167 104.169 67.9961 
99.8667 104.169 67.9961 99.5667 104.169 67.9961 99.2667 104.169 67.9961 
98.9667 104.169 67.9961 98.6667 104.169 67.9961 98.3667 104.169 67.9961 
98.0667 104.169 67.9961 97.7667 104.169 67.9961 97.4667 104.169 67.9962 
97.1667 104.169 67.9962 96.8667 104.169 67.9962 96.5667 104.169 67.9962 
96.2667 104.169 67.9962 95.9667 104.169 67.9962 95.6667 104.169 67.9962 
95.3667 104.169 67.9962 95.0667 104.169 67.9962 94.7667 104.169 67.9963 
94.4667 104.169 67.9963 94.1667 104.169 67.9963 93.8667 104.169 67.9963 
93.5667 104.169 67.9963 93.2667 104.169 67.9963 92.9667 104.169 67.9963 
92.6667 104.169 67.9963 92.3667 104.169 67.9963 92.0667 104.169 67.9964 
91.7667 104.169 67.9964 91.4667 104.169 67.9964 91.1667 104.169 67.9964 
90.8667 104.169 67.9964 90.5667 104.169 67.9964 90.2667 104.169 67.9964 
89.9667 104.169 67.9964 89.6667 104.169 67.9964 89.3667 104.169 67.9965 
89.0667 104.169 67.9965 88.7667 104.169 67.9965 88.4667 104.169 67.9965 
88.1667 104.169 67.9965 87.8667 104.169 67.9965 87.5667 104.169 67.9965 
87.2667 104.169 67.9965 86.9667 104.169 67.9965 86.6667 104.169 67.9966 
86.3667 104.169 67.9966 86.0667 104.169 67.9966 85.7667 104.169 67.9966 
85.4667 104.169 67.9966 85.1667 104.169 67.9966 84.8667 104.169 67.9966 
84.5667 104.169 67.9966 84.2667 104.169 67.9967 83.9667 104.169 67.9967 
83.6667 104.169 67.9967 83.3667 104.169 67.9967 83.0667 104.169 67.9967 
82.7667 104.169 67.9967 82.4667 104.169 67.9967 82.1667 104.169 67.9967 
81.8667 104.169 67.9967 81.5667 104.169 67.9967 81.2667 104.169 67.9968 
80.9667 104.169 67.9968 80.6667 104.169 67.9968 80.3667 104.169 67.9968 
80.0667 104.169 67.9968 79.7667 104.169 67.9968 79.4667 104.169 67.9968 
79.1667 104.169 67.9968 78.8667 104.169 67.9968 78.5667 104.169 67.9969 
78.2667 104.169 67.9969 77.9667 104.169 67.9969 77.6667 104.169 67.9969 
77.3667 104.169 67.9969 77.0667 104.169 67.9969 76.7667 104.169 67.9969 
76.4667 104.169 67.9969 76.1667 104.169 67.9969 75.8667 104.169 67.997 
75.5667 104.169 67.997 75.2667 104.169 67.997 74.9667 104.169 67.997 
74.6667 104.169 67.997 74.3667 104.169 67.997 74.0667 104.169 67.997 
73.7667 104.169 67.997 73.4667 104.169 67.997 73.1667 104.169 67.9971 
72.8667 104.169 67.9971 72.5667 104.169 67.9971 72.2667 104.169 67.9971 
71.9667 104.169 67.9971 71.6667 104.169 67.9971 71.3667 104.169 67.9971 
71.0667 104.169 67.9971 70.7667 104.169 67.9972 70.4667 104.169 67.9972 
70.1667 104.169 67.9972 69.8667 104.169 67.9972 69.5667 104.169 67.9972 
69.2667 104.169 67.9972 68.9667 104.169 67.9972 68.6667 104.169 67.9972 
68.3667 104.169 67.9972 68.0667 104.169 67.9973 67.7667 104.169 67.9973 
67.4667 104.169 67.9973 67.1667 104.169 67.9973 66.8667 104.169 67.9973 
66.5667 104.169 67.9973 66.2667 104.169 67.9973 65.9667 104.169 67.9973 
65.6667 104.169 67.9973 65.3667 104.169 67.9974 65.0667 104.169 67.9974 
64.7667 104.169 67.9974 64.4667 104.169 67.9974 64.1667 104.169 67.9974 
63.8667 104.169 67.9974 63.5667 104.169 67.9974 63.2667 104.169 67.9974 
62.9667 104.169 67.9974 62.6667 104.169 67.9975 62.3667 104.169 67.9975 
62.0667 104.169 67.9975 61.7667 104.169 67.9975 61.4667 104.169 67.9975 
61.1667 104.169 67.9975 60.8667 104.169 67.9975 60.5667 104.169 67.9975 
60.2667 104.169 67.9975 59.9667 104.169 67.9976 59.6667 104.169 67.9976 
59.3667 104.169 67.9976 59.0667 104.169 67.9976 58.7667 104.169 67.9976 
58.4667 104.169 67.9976 58.1667 104.169 67.9976 57.8667 104.169 67.9976 
57.5667 104.169 67.9976 57.2667 104.169 67.9977 56.9667 104.169 67.9977 
56.6667 104.169 67.9977 56.3667 104.169 67.9977 56.0667 104.169 67.9977 
55.7667 104.169 67.9977 55.4667 104.169 67.9977 55.1667 104.169 67.9977 
54.8667 104.169 67.9977 54.5667 104.169 67.9978 54.2667 104.169 67.9978 
53.9667 104.169 67.9978 53.6667 104.169 67.9978 53.3667 104.169 67.9978 
53.0667 104.169 67.9978 52.7667 104.169 67.9978 52.4667 104.169 67.9978 
52.1667 104.169 67.9978 51.8667 104.169 67.9979 51.5667 104.169 67.9979 
51.2667 104.169 67.9979 50.9667 104.169 67.9979 50.6667 104.169 67.9979 
50.3667 104.169 67.9979 50.0667 104.169 67.9979 49.7667 104.169 67.9979 
49.4667 104.169 67.9979 49.1667 104.169 67.998 48.8667 104.169 67.998 
48.5667 104.169 67.998 48.2667 104.169 67.998 47.9667 104.169 67.998 
47.6667 104.169 67.998 47.3667 104.169 67.998 47.0667 104.169 67.998 
46.7667 104.169 67.998 46.4667 104.169 67.9981 46.1667 104.169 67.9981 
45.8667 104.169 67.9981 45.5667 104.169 67.9981 45.2667 104.169 67.9981 
44.9667 104.169 67.9981 44.6667 104.169 67.9981 44.3667 104.169 67.9981 
44.0667 104.169 67.9981 43.7667 104.169 67.9982 43.4667 104.169 67.9982 
43.1667 104.169 67.9982 42.8667 104.169 67.9982 42.5667 104.169 67.9982 
42.2667 104.169 67.9982 41.9667 104.169 67.9982 41.6667 104.169 67.9982 
41.3667 104.169 67.9983 41.0667 104.169 67.9983 40.7667 104.169 67.9983 
40.4667 104.169 67.9983 40.1667 104.169 67.9983 39.8667 104.169 67.9983 
39.5667 104.169 67.9983 39.2667 104.169 67.9983 38.9667 104.169 67.9983 
38.6667 104.169 67.9984 38.3667 104.169 67.9984 38.0667 104.169 67.9984 
37.7667 104.169 67.9984 37.4667 104.169 67.9984 37.1667 104.169 67.9984 
36.8667 104.169 67.9984 36.5667 104.169 67.9984 36.2667 104.169 67.9984 
35.9667 104.169 67.9985 35.6667 104.169 67.9985 35.3667 104.169 67.9985 
35.0667 104.169 67.9985 34.7667 104.169 67.9985 34.4667 104.169 67.9985 
34.1667 104.169 67.9985 33.8667 104.169 67.9985 33.5667 104.169 67.9985 
33.2667 104.169 67.9986 32.9667 104.169 67.9986 32.6667 104.169 67.9986 
32.3667 104.169 67.9986 32.0667 104.169 67.9986 31.7667 104.169 67.9986 
31.4667 104.169 67.9986 31.1667 104.169 67.9986 30.8667 104.169 67.9986 
30.5667 104.169 67.9986 30.2667 104.169 67.9987 29.9667 104.169 67.9987 
29.6667 104.169 67.9987 29.3667 104.169 67.9987 29.0667 104.169 67.9987 
28.7667 104.169 67.9987 28.4667 104.169 67.9987 28.1667 104.169 67.9987 
27.8667 104.169 67.9988 27.5667 104.169 67.9988 27.2667 104.169 67.9988 
26.9667 104.169 67.9988 26.6667 104.169 67.9988 26.3667 104.169 67.9988 
26.0667 104.169 67.9988 25.7667 104.169 67.9988 25.4667 104.169 67.9988 
25.1667 104.169 67.9989 24.8667 104.169 67.9989 24.5667 104.169 67.9989 
24.2667 104.169 67.9989 23.9667 104.169 67.9989 23.6667 104.169 67.9989 
23.3667 104.169 67.9989 23.0667 104.169 67.9989 22.7667 104.169 67.9989 
22.4667 104.169 67.999 22.1667 104.169 67.999 21.8667 104.169 67.999 
21.5667 104.169 67.999 21.2667 104.169 67.999 20.9667 104.169 67.999 
20.6667 104.169 67.999 20.3667 104.169 67.999 20.0667 104.169 67.999 
19.7667 104.169 67.9991 19.4667 104.169 67.9991 19.1667 104.169 67.9991 
18.8667 104.169 67.9991 18.5667 104.169 67.9991 18.2667 104.169 67.9991 
17.9667 104.169 67.9991 17.6667 104.169 67.9991 17.3667 104.169 67.9991 
17.0667 104.169 67.9992 16.7667 104.169 67.9992 16.4667 104.169 67.9992 
16.1667 104.169 67.9992 15.8667 104.169 67.9992 15.5667 104.169 67.9992 
15.2667 104.169 67.9992 14.9667 104.169 67.9992 14.6667 104.169 67.9993 
14.3667 104.169 67.9993 14.0667 104.169 67.9993 13.7667 104.169 67.9993 
13.4667 104.169 67.9993 13.1667 104.169 67.9993 12.8667 104.169 67.9993 
12.5667 104.169 67.9993 12.2667 104.169 67.9994 11.9667 104.169 67.9994 
11.6667 104.169 67.9994 11.3667 104.169 67.9994 11.0667 104.169 67.9994 
10.7667 104.169 67.9994 10.4667 104.169 67.9994 10.1667 104.169 67.9995 
9.8667 104.169 67.9995 9.5667 104.169 67.9995 9.2667 104.169 67.9995 
8.9667 104.169 67.9995 8.6667 104.169 67.9995 8.3667 104.169 67.9996 
8.0667 104.169 67.9996 7.7667 104.169 67.9996 7.4667 104.169 67.9996 
7.1667 104.169 67.9996 6.8667 104.169 67.9997 6.5667 104.169 67.9997 
6.2667 104.169 67.9997 5.9667 104.169 67.9998 5.6667 104.169 67.9998 
5.3667 104.169 67.9998 5.0667 104.169 67.9999 4.7667 104.169 67.9999 
4.4667 104.169 68 4.1667 104.169 68 3.8667 104.169 68 
3.5667 104.169 68.0001 3.2667 104.169 68.0001 2.9667 104.169 68.0002 
2.6667 104.169 68.0002 2.3667 104.169 68.0002 2.0667 104.169 68.0003 
1.7667 104.169 68.0003 
LINES 1 401
400 0 1 2 3 4 5 6 7 8 9 10 11 12 13 14 15 16 17 18 19 20 21 22 23 24 25 26 27 28 29 30 31 32 33 34 35 36 37 38 39 40 41 42 43 44 45 46 47 48 49 50 51 52 53 54 55 56 57 58 59 60 61 62 63 64 65 66 67 68 69 70 71 72 73 74 75 76 77 78 79 80 81 82 83 84 85 86 87 88 89 90 91 92 93 94 95 96 97 98 99 100 101 102 103 104 105 106 107 108 109 110 111 112 113 114 115 116 117 118 119 120 121 122 123 124 125 126 127 128 129 130 131 132 133 134 135 136 137 138 139 140 141 142 143 144 145 146 147 148 149 150 151 152 153 154 155 156 157 158 159 160 161 162 163 164 165 166 167 168 169 170 171 172 173 174 175 176 177 178 179 180 181 182 183 184 185 186 187 188 189 190 191 192 193 194 195 196 197 198 199 200 201 202 203 204 205 206 207 208 209 210 211 212 213 214 215 216 217 218 219 220 221 222 223 224 225 226 227 228 229 230 231 232 233 234 235 236 237 238 239 240 241 242 243 244 245 246 247 248 249 250 251 252 253 254 255 256 257 258 259 260 261 262 263 264 265 266 267 268 269 270 271 272 273 274 275 276 277 278 279 280 281 282 283 284 285 286 287 288 289 290 291 292 293 294 295 296 297 298 299 300 301 302 303 304 305 306 307 308 309 310 311 312 313 314 315 316 317 318 319 320 321 322 323 324 325 326 327 328 329 330 331 332 333 334 335 336 337 338 339 340 341 342 343 344 345 346 347 348 349 350 351 352 353 354 355 356 357 358 359 360 361 362 363 364 365 366 367 368 369 370 371 372 373 374 375 376 377 378 379 380 381 382 383 384 385 386 387 388 389 390 391 392 393 394 395 396 397 398 399 

POINT_DATA 400
SCALARS NMSE float
LOOKUP_TABLE default
1.08557e-06 1.08557e-06 1.08557e-06 1.08557e-06 1.08557e-06 1.08557e-06 1.08557e-06 1.08557e-06 1.08557e-06 
1.08557e-06 1.08557e-06 1.08557e-06 1.08557e-06 1.08557e-06 1.08557e-06 1.08557e-06 1.08557e-06 1.08557e-06 
1.08557e-06 1.08557e-06 1.08557e-06 1.08557e-06 1.08557e-06 1.08557e-06 1.08557e-06 1.08557e-06 1.08557e-06 
1.08557e-06 1.08557e-06 1.08557e-06 1.08557e-06 1.08557e-06 1.08557e-06 1.08557e-06 1.08557e-06 1.08557e-06 
1.08557e-06 1.08557e-06 1.08557e-06 1.08557e-06 1.08557e-06 1.08557e-06 1.08557e-06 1.08557e-06 1.08557e-06 
1.08557e-06 1.08557e-06 1.08557e-06 1.08557e-06 1.08557e-06 1.08557e-06 1.08557e-06 1.08557e-06 1.08557e-06 
1.08557e-06 1.08557e-06 1.08557e-06 1.08557e-06 1.08557e-06 1.08557e-06 1.08557e-06 1.08557e-06 1.08557e-06 
1.08557e-06 1.08557e-06 1.08557e-06 1.08557e-06 1.08557e-06 1.08557e-06 1.08557e-06 1.08557e-06 1.08557e-06 
1.08557e-06 1.08557e-06 1.08557e-06 1.08557e-06 1.08557e-06 1.08557e-06 1.08557e-06 1.08557e-06 1.08557e-06 
1.08557e-06 1.08557e-06 1.08557e-06 1.08557e-06 1.08557e-06 1.08557e-06 1.08557e-06 1.08557e-06 1.08557e-06 
1.08557e-06 1.08557e-06 1.08557e-06 1.08557e-06 1.08557e-06 1.08557e-06 1.08557e-06 1.08557e-06 1.08557e-06 
1.08557e-06 1.08557e-06 1.08557e-06 1.08557e-06 1.08557e-06 1.08557e-06 1.08557e-06 1.08557e-06 1.08557e-06 
1.08557e-06 1.08557e-06 1.08557e-06 1.08557e-06 1.08557e-06 1.08557e-06 1.08557e-06 1.08557e-06 1.08557e-06 
1.08557e-06 1.08557e-06 1.08557e-06 1.08557e-06 1.08557e-06 1.08557e-06 1.08557e-06 1.08557e-06 1.08557e-06 
1.08557e-06 1.08557e-06 1.08557e-06 1.08557e-06 1.08557e-06 1.08557e-06 1.08557e-06 1.08557e-06 1.08557e-06 
1.08557e-06 1.08557e-06 1.08557e-06 1.08557e-06 1.08557e-06 1.08557e-06 1.08557e-06 1.08557e-06 1.08557e-06 
1.08557e-06 1.08557e-06 1.08557e-06 1.08557e-06 1.08557e-06 1.08557e-06 1.08557e-06 1.08557e-06 1.08557e-06 
1.08557e-06 1.08557e-06 1.08557e-06 1.08557e-06 1.08557e-06 1.08557e-06 1.08557e-06 1.08557e-06 1.08557e-06 
1.08557e-06 1.08557e-06 1.08557e-06 1.08557e-06 1.08557e-06 1.08557e-06 1.08557e-06 1.08557e-06 1.08557e-06 
1.08557e-06 1.08557e-06 1.08557e-06 1.08557e-06 1.08557e-06 1.08557e-06 1.08557e-06 1.08557e-06 1.08557e-06 
1.08557e-06 1.08557e-06 1.08557e-06 1.08557e-06 1.08557e-06 1.08557e-06 1.08557e-06 1.08557e-06 1.08557e-06 
1.08557e-06 1.08557e-06 1.08557e-06 1.08557e-06 1.08557e-06 1.08557e-06 1.08557e-06 1.08557e-06 1.08557e-06 
1.08557e-06 1.08557e-06 1.08557e-06 1.08557e-06 1.08557e-06 1.08557e-06 1.08557e-06 1.08557e-06 1.08557e-06 
1.08557e-06 1.08557e-06 1.08557e-06 1.08557e-06 1.08557e-06 1.08557e-06 1.08557e-06 1.08557e-06 1.08557e-06 
1.08557e-06 1.08557e-06 1.08557e-06 1.08557e-06 1.08557e-06 1.08557e-06 1.08557e-06 1.08557e-06 1.08557e-06 
1.08557e-06 1.08557e-06 1.08557e-06 1.08557e-06 1.08557e-06 1.08557e-06 1.08557e-06 1.08557e-06 1.08557e-06 
1.08557e-06 1.08557e-06 1.08557e-06 1.08557e-06 1.08557e-06 1.08557e-06 1.08557e-06 1.08557e-06 1.08557e-06 
1.08557e-06 1.08557e-06 1.08557e-06 1.08557e-06 1.08557e-06 1.08557e-06 1.08557e-06 1.08557e-06 1.08557e-06 
1.08557e-06 1.08557e-06 1.08557e-06 1.08557e-06 1.08557e-06 1.08557e-06 1.08557e-06 1.08557e-06 1.08557e-06 
1.08557e-06 1.08557e-06 1.08557e-06 1.08557e-06 1.08557e-06 1.08557e-06 1.08557e-06 1.08557e-06 1.08557e-06 
1.08557e-06 1.08557e-06 1.08557e-06 1.08557e-06 1.08557e-06 1.08557e-06 1.08557e-06 1.08557e-06 1.08557e-06 
1.08557e-06 1.08557e-06 1.08557e-06 1.08557e-06 1.08557e-06 1.08557e-06 1.08557e-06 1.08557e-06 1.08557e-06 
1.08557e-06 1.08557e-06 1.08557e-06 1.08557e-06 1.08557e-06 1.08557e-06 1.08557e-06 1.08557e-06 1.08557e-06 
1.08557e-06 1.08557e-06 1.08557e-06 1.08557e-06 1.08557e-06 1.08557e-06 1.08557e-06 1.08557e-06 1.08557e-06 
1.08557e-06 1.08557e-06 1.08557e-06 1.08557e-06 1.08557e-06 1.08557e-06 1.08557e-06 1.08557e-06 1.08557e-06 
1.08557e-06 1.08557e-06 1.08558e-06 1.08558e-06 1.08558e-06 1.08558e-06 1.08558e-06 1.08558e-06 1.08558e-06 
1.08559e-06 1.08559e-06 1.0856e-06 1.0856e-06 1.08561e-06 1.08562e-06 1.08563e-06 1.08565e-06 1.08567e-06 
1.08569e-06 1.08572e-06 1.08576e-06 1.08581e-06 1.08588e-06 1.08596e-06 1.08606e-06 1.0862e-06 1.08637e-06 
1.08659e-06 1.08688e-06 1.08724e-06 1.0877e-06 1.0883e-06 1.08907e-06 1.09005e-06 1.09131e-06 1.09293e-06 
1.09501e-06 1.09769e-06 1.10112e-06 1.10553e-06 1.1112e-06 1.11848e-06 1.12784e-06 1.13986e-06 1.1553e-06 
1.17515e-06 1.20064e-06 1.23339e-06 1.27544e-06 1.32943e-06 1.39872e-06 1.48762e-06 1.6016e-06 1.74763e-06 
1.93454e-06 2.1735e-06 2.4785e-06 2.86701e-06 3.36064e-06 3.98573e-06 4.77395e-06 5.76246e-06 6.99355e-06 
8.51314e-06 1.03677e-05 1.25988e-05 1.5235e-05 1.82815e-05 2.1711e-05 2.54634e-05 2.9474e-05 3.37582e-05 
3.85503e-05 4.42862e-05 5.21859e-05 9.85946e-05 0 9.85946e-05 5.21859e-05 4.42862e-05 3.85503e-05 
3.37582e-05 2.9474e-05 2.54634e-05 2.1711e-05 
FIELD FieldData 1
norm 1 400 float
2623.26 2623.26 2623.26 2623.26 2623.26 2623.26 2623.26 2623.26 2623.26 
2623.26 2623.26 2623.26 2623.26 2623.26 2623.26 2623.26 2623.26 2623.26 
2623.26 2623.26 2623.26 2623.26 2623.26 2623.26 2623.26 2623.26 2623.26 
2623.26 2623.26 2623.26 2623.26 2623.26 2623.26 2623.26 2623.26 2623.26 
2623.26 2623.26 2623.26 2623.26 2623.26 2623.26 2623.26 2623.26 2623.26 
2623.26 2623.26 2623.26 2623.26 2623.26 2623.26 2623.26 2623.26 2623.26 
2623.26 2623.26 2623.26 2623.26 2623.26 2623.26 2623.26 2623.26 2623.26 
2623.26 2623.26 2623.26 2623.26 2623.26 2623.26 2623.26 2623.26 2623.26 
2623.26 2623.26 2623.26 2623.26 2623.26 2623.26 2623.26 2623.26 2623.26 
2623.26 2623.26 2623.26 2623.26 2623.26 2623.26 2623.26 2623.26 2623.26 
2623.26 2623.26 2623.26 2623.26 2623.26 2623.26 2623.26 2623.26 2623.26 
2623.26 2623.26 2623.26 2623.26 2623.26 2623.26 2623.26 2623.26 2623.26 
2623.26 2623.26 2623.26 2623.26 2623.26 2623.26 2623.26 2623.26 2623.26 
2623.26 2623.26 2623.26 2623.26 2623.26 2623.26 2623.26 2623.26 2623.26 
2623.26 2623.26 2623.26 2623.26 2623.26 2623.26 2623.26 2623.26 2623.26 
2623.26 2623.26 2623.26 2623.26 2623.26 2623.26 2623.26 2623.26 2623.26 
2623.26 2623.26 2623.26 2623.26 2623.26 2623.26 2623.26 2623.26 2623.26 
2623.26 2623.26 2623.26 2623.26 2623.26 2623.26 2623.26 2623.26 2623.26 
2623.26 2623.26 2623.26 2623.26 2623.26 2623.26 2623.26 2623.26 2623.26 
2623.26 2623.26 2623.26 2623.26 2623.26 2623.26 2623.26 2623.26 2623.26 
2623.26 2623.26 2623.26 2623.26 2623.26 2623.26 2623.26 2623.26 2623.26 
2623.26 2623.26 2623.26 2623.26 2623.26 2623.26 2623.26 2623.26 2623.26 
2623.26 2623.26 2623.26 2623.26 2623.26 2623.26 2623.26 2623.26 2623.26 
2623.26 2623.26 2623.26 2623.26 2623.26 2623.26 2623.26 2623.26 2623.26 
2623.26 2623.26 2623.26 2623.26 2623.26 2623.26 2623.26 2623.26 2623.26 
2623.26 2623.26 2623.26 2623.26 2623.26 2623.26 2623.26 2623.26 2623.26 
2623.26 2623.26 2623.26 2623.26 2623.26 2623.26 2623.26 2623.26 2623.26 
2623.26 2623.26 2623.26 2623.26 2623.26 2623.26 2623.26 2623.26 2623.26 
2623.26 2623.26 2623.26 2623.26 2623.26 2623.26 2623.26 2623.26 2623.26 
2623.26 2623.26 2623.26 2623.26 2623.26 2623.26 2623.26 2623.26 2623.26 
2623.26 2623.26 2623.26 2623.26 2623.26 2623.26 2623.26 2623.26 2623.26 
2623.26 2623.26 2623.26 2623.26 2623.26 2623.26 2623.26 2623.26 2623.26 
2623.26 2623.26 2623.26 2623.26 2623.26 2623.26 2623.26 2623.26 2623.26 
2623.26 2623.26 2623.26 2623.26 2623.26 2623.26 2623.26 2623.26 2623.26 
2623.26 2623.26 2623.26 2623.26 2623.26 2623.26 2623.26 2623.26 2623.25 
2623.25 2623.25 2623.25 2623.25 2623.25 2623.24 2623.24 2623.24 2623.24 
2623.23 2623.23 2623.22 2623.22 2623.21 2623.2 2623.2 2623.19 2623.18 
2623.17 2623.15 2623.14 2623.12 2623.1 2623.08 2623.05 2623.02 2622.99 
2622.95 2622.91 2622.86 2622.8 2622.73 2622.65 2622.56 2622.45 2622.33 
2622.18 2622.01 2621.81 2621.57 2621.29 2620.95 2620.55 2620.07 2619.48 
2618.78 2617.92 2616.86 2615.57 2613.98 2612.01 2609.57 2606.53 2602.74 
2597.98 2592.01 2584.5 2575.03 2563.07 2547.97 2528.88 2504.75 2474.31 
2435.98 2387.85 2327.73 2253.09 2161.24 2049.44 1915.23 1756.73 1572.51 
1360.21 1111.7 806.406 424.278 0.0223607 424.278 806.406 1111.7 1360.21 
1572.51 1756.73 1915.23 2049.44 
