# vtk DataFile Version 3.0
vtk output
ASCII
DATASET POLYDATA
POINTS 400 float
1.7667 104.169 68.0018 2.0667 104.169 68.0016 2.3667 104.169 68.0014 
2.6667 104.169 68.0012 2.9667 104.169 68.0009 3.2667 104.169 68.0007 
3.5667 104.169 68.0005 3.8667 104.169 68.0002 4.1667 104.169 68 
4.4667 104.169 67.9998 4.7667 104.169 67.9995 5.0667 104.169 67.9993 
5.3667 104.169 67.9991 5.6667 104.169 67.9988 5.9667 104.169 67.9986 
6.2667 104.169 67.9984 6.5667 104.169 67.9982 6.8667 104.169 67.998 
7.1667 104.169 67.9978 7.4667 104.169 67.9976 7.7667 104.169 67.9974 
8.0667 104.169 67.9972 8.3667 104.169 67.997 8.6667 104.169 67.9969 
8.9667 104.169 67.9967 9.2667 104.169 67.9965 9.5667 104.169 67.9963 
9.8667 104.169 67.9961 10.1667 104.169 67.9959 10.4667 104.169 67.9958 
10.7667 104.169 67.9956 11.0667 104.169 67.9954 11.3667 104.169 67.9952 
11.6667 104.169 67.995 11.9667 104.169 67.9949 12.2667 104.169 67.9947 
12.5667 104.169 67.9945 12.8667 104.169 67.9943 13.1667 104.169 67.9941 
13.4667 104.169 67.994 13.7667 104.169 67.9938 14.0667 104.169 67.9936 
14.3667 104.169 67.9934 14.6667 104.169 67.9932 14.9667 104.169 67.9931 
15.2667 104.169 67.9929 15.5667 104.169 67.9927 15.8667 104.169 67.9925 
16.1667 104.169 67.9923 16.4667 104.169 67.9922 16.7667 104.169 67.992 
17.0667 104.169 67.9918 17.3667 104.169 67.9916 17.6667 104.169 67.9914 
17.9667 104.169 67.9912 18.2667 104.169 67.9911 18.5667 104.169 67.9909 
18.8667 104.169 67.9907 19.1667 104.169 67.9905 19.4667 104.169 67.9903 
19.7667 104.169 67.9902 20.0667 104.169 67.99 20.3667 104.169 67.9898 
20.6667 104.169 67.9896 20.9667 104.169 67.9894 21.2667 104.169 67.9893 
21.5667 104.169 67.9891 21.8667 104.169 67.9889 22.1667 104.169 67.9887 
22.4667 104.169 67.9885 22.7667 104.169 67.9883 23.0667 104.169 67.9882 
23.3667 104.169 67.988 23.6667 104.169 67.9878 23.9667 104.169 67.9876 
24.2667 104.169 67.9874 24.5667 104.169 67.9873 24.8667 104.169 67.9871 
25.1667 104.169 67.9869 25.4667 104.169 67.9867 25.7667 104.169 67.9865 
26.0667 104.169 67.9864 26.3667 104.169 67.9862 26.6667 104.169 67.986 
26.9667 104.169 67.9858 27.2667 104.169 67.9857 27.5667 104.169 67.9855 
27.8667 104.169 67.9853 28.1667 104.169 67.9851 28.4667 104.169 67.9849 
28.7667 104.169 67.9848 29.0667 104.169 67.9846 29.3667 104.169 67.9844 
29.6667 104.169 67.9842 29.9667 104.169 67.984 30.2667 104.169 67.9839 
30.5667 104.169 67.9837 30.8667 104.169 67.9835 31.1667 104.169 67.9833 
31.4667 104.169 67.9832 31.7667 104.169 67.983 32.0667 104.169 67.9828 
32.3667 104.169 67.9826 32.6667 104.169 67.9824 32.9667 104.169 67.9823 
33.2667 104.169 67.9821 33.5667 104.169 67.9819 33.8667 104.169 67.9817 
34.1667 104.169 67.9816 34.4667 104.169 67.9814 34.7667 104.169 67.9812 
35.0667 104.169 67.981 35.3667 104.169 67.9809 35.6667 104.169 67.9807 
35.9667 104.169 67.9805 36.2667 104.169 67.9803 36.5667 104.169 67.9801 
36.8667 104.169 67.98 37.1667 104.169 67.9798 37.4667 104.169 67.9796 
37.7667 104.169 67.9794 38.0667 104.169 67.9793 38.3667 104.169 67.9791 
38.6667 104.169 67.9789 38.9667 104.169 67.9787 39.2667 104.169 67.9786 
39.5667 104.169 67.9784 39.8667 104.169 67.9782 40.1667 104.169 67.978 
40.4667 104.169 67.9778 40.7667 104.169 67.9777 41.0667 104.169 67.9775 
41.3667 104.169 67.9773 41.6667 104.169 67.9771 41.9667 104.169 67.977 
42.2667 104.169 67.9768 42.5667 104.169 67.9766 42.8667 104.169 67.9764 
43.1667 104.169 67.9763 43.4667 104.169 67.9761 43.7667 104.169 67.9759 
44.0667 104.169 67.9757 44.3667 104.169 67.9756 44.6667 104.169 67.9754 
44.9667 104.169 67.9752 45.2667 104.169 67.975 45.5667 104.169 67.9749 
45.8667 104.169 67.9747 46.1667 104.169 67.9745 46.4667 104.169 67.9743 
46.7667 104.169 67.9742 47.0667 104.169 67.974 47.3667 104.169 67.9738 
47.6667 104.169 67.9736 47.9667 104.169 67.9735 48.2667 104.169 67.9733 
48.5667 104.169 67.9731 48.8667 104.169 67.9729 49.1667 104.169 67.9728 
49.4667 104.169 67.9726 49.7667 104.169 67.9724 50.0667 104.169 67.9723 
50.3667 104.169 67.9721 50.6667 104.169 67.9719 50.9667 104.169 67.9717 
51.2667 104.169 67.9716 51.5667 104.169 67.9714 51.8667 104.169 67.9712 
52.1667 104.169 67.971 52.4667 104.169 67.9709 52.7667 104.169 67.9707 
53.0667 104.169 67.9705 53.3667 104.169 67.9703 53.6667 104.169 67.9702 
53.9667 104.169 67.97 54.2667 104.169 67.9698 54.5667 104.169 67.9697 
54.8667 104.169 67.9695 55.1667 104.169 67.9693 55.4667 104.169 67.9691 
55.7667 104.169 67.969 56.0667 104.169 67.9688 56.3667 104.169 67.9686 
56.6667 104.169 67.9685 56.9667 104.169 67.9683 57.2667 104.169 67.9681 
57.5667 104.169 67.9679 57.8667 104.169 67.9678 58.1667 104.169 67.9676 
58.4667 104.169 67.9674 58.7667 104.169 67.9672 59.0667 104.169 67.9671 
59.3667 104.169 67.9669 59.6667 104.169 67.9667 59.9667 104.169 67.9666 
60.2667 104.169 67.9664 60.5667 104.169 67.9662 60.8667 104.169 67.966 
61.1667 104.169 67.9659 61.4667 104.169 67.9657 61.7667 104.169 67.9655 
62.0667 104.169 67.9654 62.3667 104.169 67.9652 62.6667 104.169 67.965 
62.9667 104.169 67.9649 63.2667 104.169 67.9647 63.5667 104.169 67.9645 
63.8667 104.169 67.9643 64.1667 104.169 67.9642 64.4667 104.169 67.964 
64.7667 104.169 67.9638 65.0667 104.169 67.9637 65.3667 104.169 67.9635 
65.6667 104.169 67.9633 65.9667 104.169 67.9632 66.2667 104.169 67.963 
66.5667 104.169 67.9628 66.8667 104.169 67.9626 67.1667 104.169 67.9625 
67.4667 104.169 67.9623 67.7667 104.169 67.9621 68.0667 104.169 67.962 
68.3667 104.169 67.9618 68.6667 104.169 67.9616 68.9667 104.169 67.9615 
69.2667 104.169 67.9613 69.5667 104.169 67.9611 69.8667 104.169 67.961 
70.1667 104.169 67.9608 70.4667 104.169 67.9606 70.7667 104.169 67.9604 
71.0667 104.169 67.9603 71.3667 104.169 67.9601 71.6667 104.169 67.9599 
71.9667 104.169 67.9598 72.2667 104.169 67.9596 72.5667 104.169 67.9594 
72.8667 104.169 67.9593 73.1667 104.169 67.9591 73.4667 104.169 67.9589 
73.7667 104.169 67.9588 74.0667 104.169 67.9586 74.3667 104.169 67.9584 
74.6667 104.169 67.9583 74.9667 104.169 67.9581 75.2667 104.169 67.9579 
75.5667 104.169 67.9578 75.8667 104.169 67.9576 76.1667 104.169 67.9574 
76.4667 104.169 67.9573 76.7667 104.169 67.9571 77.0667 104.169 67.9569 
77.3667 104.169 67.9568 77.6667 104.169 67.9566 77.9667 104.169 67.9564 
78.2667 104.169 67.9563 78.5667 104.169 67.9561 78.8667 104.169 67.9559 
79.1667 104.169 67.9558 79.4667 104.169 67.9556 79.7667 104.169 67.9554 
80.0667 104.169 67.9553 80.3667 104.169 67.9551 80.6667 104.169 67.9549 
80.9667 104.169 67.9548 81.2667 104.169 67.9546 81.5667 104.169 67.9544 
81.8667 104.169 67.9543 82.1667 104.169 67.9541 82.4667 104.169 67.954 
82.7667 104.169 67.9538 83.0667 104.169 67.9536 83.3667 104.169 67.9535 
83.6667 104.169 67.9533 83.9667 104.169 67.9531 84.2667 104.169 67.953 
84.5667 104.169 67.9528 84.8667 104.169 67.9526 85.1667 104.169 67.9525 
85.4667 104.169 67.9523 85.7667 104.169 67.9521 86.0667 104.169 67.952 
86.3667 104.169 67.9518 86.6667 104.169 67.9517 86.9667 104.169 67.9515 
87.2667 104.169 67.9513 87.5667 104.169 67.9512 87.8667 104.169 67.951 
88.1667 104.169 67.9508 88.4667 104.169 67.9507 88.7667 104.169 67.9505 
89.0667 104.169 67.9504 89.3667 104.169 67.9502 89.6667 104.169 67.95 
89.9667 104.169 67.9499 90.2667 104.169 67.9497 90.5667 104.169 67.9495 
90.8667 104.169 67.9494 91.1667 104.169 67.9492 91.4667 104.169 67.9491 
91.7667 104.169 67.9489 92.0667 104.169 67.9487 92.3667 104.169 67.9486 
92.6667 104.169 67.9484 92.9667 104.169 67.9482 93.2667 104.169 67.9481 
93.5667 104.169 67.9479 93.8667 104.169 67.9478 94.1667 104.169 67.9476 
94.4667 104.169 67.9474 94.7667 104.169 67.9473 95.0667 104.169 67.9471 
95.3667 104.169 67.947 95.6667 104.169 67.9468 95.9667 104.169 67.9466 
96.2667 104.169 67.9465 96.5667 104.169 67.9463 96.8667 104.169 67.9462 
97.1667 104.169 67.946 97.4667 104.169 67.9458 97.7667 104.169 67.9457 
98.0667 104.169 67.9455 98.3667 104.169 67.9454 98.6667 104.169 67.9452 
98.9667 104.169 67.945 99.2667 104.169 67.9449 99.5667 104.169 67.9447 
99.8667 104.169 67.9446 100.167 104.169 67.9444 100.467 104.169 67.9442 
100.767 104.169 67.9441 101.067 104.169 67.9439 101.367 104.169 67.9438 
101.667 104.169 67.9436 101.967 104.169 67.9435 102.267 104.169 67.9433 
102.567 104.169 67.9431 102.867 104.169 67.943 103.167 104.169 67.9428 
103.467 104.169 67.9427 103.767 104.169 67.9425 104.067 104.169 67.9424 
104.367 104.169 67.9422 104.667 104.169 67.942 104.967 104.169 67.9419 
105.267 104.169 67.9417 105.567 104.169 67.9416 105.867 104.169 67.9414 
106.167 104.169 67.9412 106.467 104.169 67.9411 106.767 104.169 67.9409 
107.067 104.169 67.9408 107.367 104.169 67.9406 107.667 104.169 67.9405 
107.967 104.169 67.9403 108.267 104.169 67.9401 108.567 104.169 67.94 
108.867 104.169 67.9398 109.167 104.169 67.9397 109.467 104.169 67.9395 
109.767 104.169 67.9394 110.067 104.169 67.9392 110.367 104.169 67.9391 
110.667 104.169 67.9389 110.967 104.169 67.9396 111.267 104.169 67.9402 
111.567 104.169 67.9403 111.867 104.169 67.9403 112.167 104.169 67.9402 
112.467 104.169 67.94 112.767 104.169 67.9399 113.067 104.169 67.9397 
113.367 104.169 67.9396 113.667 104.169 67.9394 113.967 104.169 67.9393 
114.267 104.169 67.9391 114.567 104.169 67.9389 114.867 104.169 67.9388 
115.167 104.169 67.9386 115.467 104.169 67.9385 115.767 104.169 67.9383 
116.067 104.169 67.9382 116.367 104.169 67.938 116.667 104.169 67.9379 
116.967 104.169 67.9377 117.267 104.169 67.9376 117.567 104.169 67.9374 
117.867 104.169 67.9372 118.167 104.169 67.9371 118.467 104.169 67.9369 
118.767 104.169 67.9368 119.067 104.169 67.9366 119.367 104.169 67.9365 
119.667 104.169 67.9363 119.967 104.169 67.9362 120.267 104.169 67.936 
120.567 104.169 67.9359 120.867 104.169 67.9357 121.167 104.169 67.9355 
121.467 104.169 67.9354 
LINES 1 401
400 0 1 2 3 4 5 6 7 8 9 10 11 12 13 14 15 16 17 18 19 20 21 22 23 24 25 26 27 28 29 30 31 32 33 34 35 36 37 38 39 40 41 42 43 44 45 46 47 48 49 50 51 52 53 54 55 56 57 58 59 60 61 62 63 64 65 66 67 68 69 70 71 72 73 74 75 76 77 78 79 80 81 82 83 84 85 86 87 88 89 90 91 92 93 94 95 96 97 98 99 100 101 102 103 104 105 106 107 108 109 110 111 112 113 114 115 116 117 118 119 120 121 122 123 124 125 126 127 128 129 130 131 132 133 134 135 136 137 138 139 140 141 142 143 144 145 146 147 148 149 150 151 152 153 154 155 156 157 158 159 160 161 162 163 164 165 166 167 168 169 170 171 172 173 174 175 176 177 178 179 180 181 182 183 184 185 186 187 188 189 190 191 192 193 194 195 196 197 198 199 200 201 202 203 204 205 206 207 208 209 210 211 212 213 214 215 216 217 218 219 220 221 222 223 224 225 226 227 228 229 230 231 232 233 234 235 236 237 238 239 240 241 242 243 244 245 246 247 248 249 250 251 252 253 254 255 256 257 258 259 260 261 262 263 264 265 266 267 268 269 270 271 272 273 274 275 276 277 278 279 280 281 282 283 284 285 286 287 288 289 290 291 292 293 294 295 296 297 298 299 300 301 302 303 304 305 306 307 308 309 310 311 312 313 314 315 316 317 318 319 320 321 322 323 324 325 326 327 328 329 330 331 332 333 334 335 336 337 338 339 340 341 342 343 344 345 346 347 348 349 350 351 352 353 354 355 356 357 358 359 360 361 362 363 364 365 366 367 368 369 370 371 372 373 374 375 376 377 378 379 380 381 382 383 384 385 386 387 388 389 390 391 392 393 394 395 396 397 398 399 

POINT_DATA 400
SCALARS NMSE float
LOOKUP_TABLE default
0.000373471 0.000392807 0.000414113 0.000434472 0.000447165 0.000441604 0.000415924 0.000613162 0 
0.000613162 0.000415924 0.000441604 0.000447165 0.000434472 0.000414113 0.000392807 0.000373471 0.000356865 
0.000342808 0.000330828 0.000321022 0.000312734 0.000305266 0.000298359 0.000291871 0.000285716 0.000279839 
0.000274206 0.000268798 0.0002636 0.000258603 0.0002538 0.000249184 0.00024475 0.000240491 0.000236401 
0.000232475 0.000228705 0.000225086 0.000221611 0.000218275 0.00021507 0.000211991 0.000209033 0.000206189 
0.000203456 0.000200827 0.000198299 0.000195868 0.000193528 0.000191276 0.000189109 0.000187023 0.000185015 
0.000183492 0.000182199 0.000180946 0.000179691 0.000178431 0.000177173 0.000175923 0.000174689 0.000173475 
0.000172285 0.000171122 0.000169989 0.000168886 0.000167815 0.000166777 0.00016577 0.000164796 0.000163854 
0.000162944 0.000162064 0.000161215 0.000160395 0.000159605 0.000158842 0.000158107 0.000157398 0.000156715 
0.000156057 0.000155423 0.000154813 0.000154225 0.000153659 0.000153115 0.000152592 0.000152088 0.000151605 
0.00015114 0.00015075 0.0001506 0.000150487 0.000150375 0.000150259 0.000150138 0.000150011 0.000149881 
0.000149747 0.000149609 0.000149469 0.000149326 0.000149182 0.000149036 0.000148888 0.000148739 0.000148589 
0.000148438 0.000148286 0.000148134 0.000147982 0.000147829 0.000147675 0.000147522 0.000147368 0.000147215 
0.000147061 0.000146907 0.000146754 0.0001466 0.000146447 0.000146294 0.00014614 0.000145987 0.000145834 
0.000145682 0.000145529 0.000145377 0.000145225 0.000145073 0.000144921 0.00014477 0.000144619 0.000144467 
0.000144317 0.000144166 0.000144015 0.000143865 0.000143715 0.000143565 0.000143415 0.000143266 0.000143117 
0.000142967 0.000142819 0.00014267 0.000142521 0.000142373 0.000142224 0.000142076 0.000141929 0.000141781 
0.000141633 0.000141486 0.000141338 0.000141191 0.000141044 0.000140898 0.000140751 0.000140605 0.000140458 
0.000140312 0.000140166 0.00014002 0.000139875 0.000139729 0.000139584 0.000139439 0.000139294 0.000139149 
0.000139005 0.00013886 0.000138716 0.000138572 0.000138429 0.000138285 0.000138142 0.000137999 0.000137857 
0.000137715 0.000137573 0.000137431 0.00013729 0.000137149 0.000137009 0.000136869 0.000136729 0.000136591 
0.000136452 0.000136314 0.000136177 0.000136041 0.000135905 0.00013577 0.000135636 0.000135503 0.000135371 
0.00013524 0.00013511 0.000134981 0.000134854 0.000134728 0.000134604 0.000134481 0.000134361 0.000134242 
0.000134122 0.000134002 0.000133882 0.000133761 0.00013364 0.000133518 0.000133396 0.000133273 0.00013315 
0.000133026 0.000132902 0.000132777 0.000132652 0.000132527 0.000132401 0.000132274 0.000132148 0.00013202 
0.000131893 0.000131765 0.000131636 0.000131507 0.000131378 0.000131249 0.000131119 0.000130989 0.000130858 
0.000130727 0.000130596 0.000130464 0.000130332 0.0001302 0.000130067 0.000129934 0.000129801 0.000129668 
0.000129534 0.0001294 0.000129266 0.000129131 0.000128997 0.000128862 0.000128726 0.000128591 0.000128455 
0.000128319 0.000128183 0.000128047 0.00012791 0.000127774 0.000127637 0.0001275 0.000127363 0.000127225 
0.000127088 0.00012695 0.000126812 0.000126674 0.000126536 0.000126398 0.000126259 0.000126121 0.000125982 
0.000125844 0.000125705 0.000125566 0.000125427 0.000125288 0.000125149 0.00012501 0.00012487 0.000124731 
0.000124592 0.000124452 0.000124313 0.000124173 0.000124034 0.000123894 0.000123755 0.000123615 0.000123475 
0.000123336 0.000123196 0.000123056 0.000122917 0.000122777 0.000122637 0.000122498 0.000122358 0.000122218 
0.000122079 0.000121939 0.0001218 0.00012166 0.000121521 0.000121382 0.000121242 0.000121103 0.000120964 
0.000120825 0.000120686 0.000120547 0.000120408 0.000120269 0.00012013 0.000119992 0.000119853 0.000119715 
0.000119576 0.000119438 0.0001193 0.000119162 0.000119024 0.000118886 0.000118749 0.000118611 0.000118474 
0.000118336 0.000118199 0.000118062 0.000117925 0.000117788 0.000117652 0.000117515 0.000117379 0.000117243 
0.000117107 0.000116971 0.000116835 0.000116699 0.000116564 0.000116429 0.000116294 0.000116159 0.000116024 
0.000115889 0.000115755 0.000115621 0.000115487 0.000115353 0.000115219 0.000115086 0.000114952 0.000114819 
0.000114686 0.000114554 0.000114421 0.000114289 0.000114157 0.000114025 0.000113893 0.000113762 0.00011363 
0.000113499 0.000113368 0.000113238 0.000113107 0.00351886 0.000132829 0.000115326 0.000114614 0.000114302 
0.000114175 0.000114076 0.000113982 0.000113891 0.0001138 0.000113709 0.000113619 0.000113529 0.000113439 
0.000113348 0.000113258 0.000113168 0.000113077 0.000112986 0.000112895 0.000112803 0.000112712 0.00011262 
0.000112528 0.000112436 0.000112344 0.000112251 0.000112159 0.000112066 0.000111973 0.00011188 0.000111787 
0.000111694 0.0001116 0.000111507 0.000111413 
FIELD FieldData 2
norm 1 400 float
2356.93 2171.17 1967.81 1739.42 1477.36 1173.18 821.392 424.278 0.0244949 
424.278 821.392 1173.18 1477.36 1739.42 1967.81 2171.17 2356.93 2530.91 
2697.5 2859.92 3019.85 3178.29 3336.11 3493.88 3652 3810.71 3970.16 
4130.41 4291.48 4453.37 4616.03 4779.41 4943.44 5108.07 5273.21 5438.81 
5604.8 5771.12 5937.69 6104.48 6271.42 6438.47 6605.57 6772.7 6939.79 
7106.82 7273.76 7440.56 7607.2 7773.65 7939.88 8105.86 8271.57 8436.99 
8600.39 8760.96 8918.75 9074.05 9227.16 9378.33 9527.82 9675.83 9822.52 
9968.05 10112.6 10256.1 10398.9 10540.9 10682.2 10822.9 10963 11102.5 
11241.6 11380.2 11518.3 11656.1 11793.4 11930.3 12066.8 12203 12338.9 
12474.4 12609.5 12744.4 12878.9 13013.1 13147.1 13280.7 13414.1 13547.2 
13680 13812.3 13943.7 14074.1 14203.8 14333 14461.9 14590.5 14719.1 
14847.8 14976.7 15105.8 15235.2 15365.1 15495.5 15626.5 15758.1 15890.3 
16023.3 16157.1 16291.6 16427 16563.3 16700.5 16838.6 16977.7 17117.8 
17258.8 17400.9 17544.1 17688.3 17833.6 17980 18127.6 18276.3 18426.1 
18577.1 18729.3 18882.7 19037.4 19193.2 19350.3 19508.7 19668.4 19829.3 
19991.6 20155.1 20320 20486.3 20653.9 20822.8 20993.2 21165 21338.1 
21512.7 21688.8 21866.2 22045.2 22225.6 22407.5 22591 22775.9 22962.4 
23150.4 23340 23531.1 23723.9 23918.2 24114.1 24311.7 24510.8 24711.7 
24914.1 25118.3 25324.1 25531.6 25740.8 25951.8 26164.4 26378.8 26594.9 
26812.7 27032.4 27253.7 27476.9 27701.8 27928.6 28157.1 28387.4 28619.5 
28853.4 29089.1 29326.6 29565.9 29807.1 30050 30294.7 30541.2 30789.5 
31039.5 31291.4 31544.9 31800.2 32057.2 32315.9 32576.2 32838.2 33101.8 
33366.9 33633.6 33901.8 34171.4 34442.4 34714.7 34988.2 35263 35538.2 
35813.5 36088.6 36363.7 36638.6 36913.4 37188 37462.5 37736.9 38011.1 
38285.1 38559.1 38832.9 39106.5 39380 39653.4 39926.6 40199.6 40472.5 
40745.3 41017.9 41290.4 41562.7 41834.9 42106.9 42378.7 42650.4 42922 
43193.4 43464.7 43735.7 44006.7 44277.5 44548.1 44818.6 45088.9 45359.1 
45629.1 45898.9 46168.6 46438.1 46707.5 46976.7 47245.8 47514.7 47783.5 
48052.1 48320.5 48588.8 48856.9 49124.8 49392.6 49660.3 49927.8 50195.1 
50462.3 50729.3 50996.1 51262.8 51529.3 51795.7 52061.9 52328 52593.9 
52859.6 53125.2 53390.6 53655.9 53921 54186 54450.8 54715.4 54979.9 
55244.2 55508.4 55772.4 56036.3 56300 56563.6 56827 57090.2 57353.3 
57616.3 57879.1 58141.7 58404.2 58666.5 58928.7 59190.7 59452.6 59714.3 
59975.9 60237.3 60498.6 60759.8 61020.8 61281.6 61542.3 61802.8 62063.2 
62323.5 62583.6 62843.6 63103.4 63363.1 63622.6 63882 64141.3 64400.4 
64659.3 64918.2 65176.9 65435.4 65693.8 65952.1 66210.3 66468.3 66726.2 
66983.9 67241.5 67499 67756.3 68013.5 68270.6 68527.5 68784.3 69041 
69297.6 69554 69810.3 70066.5 70322.5 70578.4 70834.2 71089.9 71345.5 
71600.9 71856.2 72111.4 72366.4 72621.4 72876.2 73130.9 73385.5 73640 
73894.3 74148.5 74402.7 74656.7 74910.6 75164.4 75418 75671.6 75925 
76178.4 76431.6 76684.7 76937.8 50300.2 49743.3 49902.4 50134.2 50382.3 
50638.1 50899 51163.5 51430.7 51699.8 51970.3 52241.7 52513.8 52786.3 
53059.2 53332.2 53605.4 53878.6 54151.8 54424.9 54698.1 54971.1 55244 
55516.9 55789.6 56062.2 56334.8 56607.1 56879.4 57151.5 57423.5 57695.4 
57967.1 58238.7 58510.2 58781.5 
FreeWater 1 400 float
0.0294276 0.0256485 0.0216677 0.0175262 0.0133122 0.00916869 0.00528291 0.00163648 0 
0.00163648 0.00528291 0.00916869 0.0133122 0.0175262 0.0216677 0.0256485 0.0294276 0.0329941 
0.0363537 0.0395193 0.0425306 0.0454063 0.0481531 0.0507816 0.053302 0.0557233 0.0580536 
0.0602999 0.0624686 0.0645656 0.0665959 0.0685643 0.0704749 0.0723316 0.0741379 0.0758968 
0.0776112 0.0792837 0.0809167 0.0825123 0.0840725 0.085599 0.0870934 0.0885574 0.0899922 
0.0913992 0.0927795 0.0941341 0.0954641 0.0967704 0.0980539 0.0993154 0.100556 0.101775 
0.103005 0.104243 0.105481 0.106716 0.107945 0.109166 0.110378 0.111578 0.112768 
0.113945 0.115109 0.116261 0.117399 0.118524 0.119635 0.120734 0.121819 0.122891 
0.123949 0.124996 0.126029 0.127051 0.12806 0.129057 0.130043 0.131017 0.13198 
0.132933 0.133874 0.134805 0.135726 0.136637 0.137539 0.13843 0.139313 0.140186 
0.14105 0.141912 0.14279 0.143674 0.144562 0.145454 0.146349 0.147246 0.148145 
0.149046 0.149948 0.150852 0.151758 0.152664 0.153571 0.154479 0.155388 0.156297 
0.157207 0.158118 0.159029 0.15994 0.160852 0.161764 0.162676 0.163589 0.164502 
0.165416 0.16633 0.167244 0.168158 0.169073 0.169989 0.170904 0.17182 0.172737 
0.173654 0.174571 0.175489 0.176407 0.177326 0.178245 0.179165 0.180086 0.181007 
0.181928 0.182851 0.183774 0.184697 0.185622 0.186547 0.187473 0.1884 0.189327 
0.190256 0.191185 0.192115 0.193046 0.193978 0.194911 0.195846 0.196781 0.197717 
0.198654 0.199592 0.200532 0.201472 0.202414 0.203357 0.204301 0.205247 0.206194 
0.207142 0.208092 0.209043 0.209995 0.210949 0.211904 0.212861 0.213819 0.214779 
0.215741 0.216704 0.217669 0.218635 0.219603 0.220573 0.221545 0.222519 0.223494 
0.224472 0.225451 0.226432 0.227416 0.228401 0.229388 0.230378 0.23137 0.232364 
0.23336 0.234359 0.23536 0.236363 0.237369 0.238377 0.239388 0.240402 0.241418 
0.242437 0.243459 0.244484 0.245512 0.246542 0.247576 0.248614 0.249654 0.250709 
0.251775 0.252848 0.253927 0.255011 0.2561 0.257193 0.258292 0.259395 0.260502 
0.261614 0.26273 0.263851 0.264975 0.266104 0.267237 0.268373 0.269514 0.270658 
0.271806 0.272958 0.274113 0.275272 0.276434 0.2776 0.278769 0.279941 0.281116 
0.282294 0.283476 0.28466 0.285847 0.287037 0.28823 0.289425 0.290623 0.291824 
0.293027 0.294232 0.29544 0.29665 0.297863 0.299077 0.300294 0.301512 0.302733 
0.303956 0.30518 0.306407 0.307635 0.308864 0.310096 0.311329 0.312563 0.313799 
0.315037 0.316275 0.317515 0.318756 0.319999 0.321242 0.322487 0.323733 0.32498 
0.326227 0.327476 0.328725 0.329975 0.331226 0.332477 0.333729 0.334982 0.336235 
0.337489 0.338743 0.339998 0.341253 0.342508 0.343763 0.345019 0.346275 0.347531 
0.348787 0.350043 0.351299 0.352555 0.353811 0.355067 0.356322 0.357578 0.358833 
0.360088 0.361343 0.362597 0.363851 0.365104 0.366357 0.36761 0.368861 0.370113 
0.371364 0.372614 0.373863 0.375112 0.37636 0.377607 0.378853 0.380099 0.381344 
0.382587 0.38383 0.385072 0.386313 0.387553 0.388792 0.39003 0.391266 0.392502 
0.393736 0.39497 0.396202 0.397432 0.398662 0.39989 0.401117 0.402343 0.403567 
0.40479 0.406011 0.407231 0.40845 0.409667 0.410883 0.412097 0.413309 0.41452 
0.41573 0.416938 0.418144 0.419348 0.420551 0.421753 0.422952 0.42415 0.425346 
0.426541 0.427733 0.428924 0.430113 0.4313 0.432486 0.433669 0.434851 0.436031 
0.437209 0.438385 0.439559 0.440731 0.426956 0.428378 0.429018 0.429945 0.430765 
0.431558 0.432346 0.433136 0.433929 0.434724 0.435523 0.436325 0.437129 0.437935 
0.438744 0.439555 0.440367 0.441182 0.441998 0.442816 0.443636 0.444457 0.44528 
0.446104 0.44693 0.447757 0.448585 0.449414 0.450245 0.451077 0.45191 0.452744 
0.453579 0.454415 0.455252 0.456091 
