# vtk DataFile Version 3.0
Tracts generated with tensor 1
ASCII
DATASET POLYDATA
POINTS 608 float

1.76671 104.169 68.0084 1.96671 104.169 68.0077 2.16671 104.169 68.007
2.36671 104.169 68.0062 2.56671 104.169 68.0055 2.76671 104.169 68.0048
2.96671 104.169 68.0041 3.16671 104.169 68.0034 3.3667 104.169 68.0027
3.5667 104.169 68.002 3.7667 104.169 68.0013 3.9667 104.169 68.0007
4.1667 104.169 68 4.3667 104.169 67.9993 4.5667 104.169 67.9987
4.7667 104.169 67.998 4.9667 104.169 67.9973 5.16669 104.169 67.9966
5.36669 104.169 67.9959 5.56669 104.169 67.9952 5.76669 104.169 67.9945
5.96669 104.169 67.9938 6.16669 104.169 67.993 6.36669 104.169 67.9923
6.56669 104.169 67.9916 6.76668 104.169 67.9908 6.96668 104.169 67.9901
7.16668 104.169 67.9893 7.36668 104.169 67.9886 7.56668 104.169 67.9878
7.76668 104.169 67.9871 7.96668 104.169 67.9863 8.16667 104.169 67.9856
8.36667 104.169 67.9848 8.56667 104.169 67.9841 8.76667 104.169 67.9833
8.96667 104.169 67.9826 9.16667 104.169 67.9818 9.36667 104.169 67.981
9.56666 104.169 67.9803 9.76666 104.169 67.9795 9.96666 104.169 67.9788
10.1667 104.169 67.978 10.3667 104.169 67.9773 10.5667 104.169 67.9765
10.7667 104.169 67.9758 10.9667 104.169 67.975 11.1667 104.169 67.9743
11.3667 104.169 67.9735 11.5666 104.169 67.9728 11.7666 104.169 67.9721
11.9666 104.169 67.9713 12.1666 104.169 67.9706 12.3666 104.169 67.9698
12.5666 104.169 67.9691 12.7666 104.169 67.9683 12.9666 104.169 67.9676
13.1666 104.169 67.9668 13.3666 104.169 67.9661 13.5666 104.169 67.9654
13.7666 104.169 67.9646 13.9666 104.169 67.9639 14.1666 104.169 67.9632
14.3666 104.169 67.9624 14.5666 104.169 67.9617 14.7666 104.169 67.9609
14.9666 104.169 67.9602 15.1666 104.169 67.9595 15.3666 104.169 67.9587
15.5666 104.169 67.958 15.7666 104.169 67.9573 15.9666 104.169 67.9566
16.1666 104.169 67.9558 16.3666 104.169 67.9551 16.5666 104.169 67.9544
16.7666 104.169 67.9536 16.9666 104.169 67.9529 17.1666 104.169 67.9522
17.3666 104.169 67.9515 17.5666 104.169 67.9507 17.7666 104.169 67.95
17.9666 104.169 67.9493 18.1666 104.169 67.9486 18.3666 104.169 67.9479
18.5666 104.169 67.9471 18.7666 104.169 67.9464 18.9666 104.169 67.9457
19.1666 104.169 67.945 19.3666 104.169 67.9443 19.5666 104.169 67.9436
19.7666 104.169 67.9428 19.9666 104.169 67.9421 20.1666 104.169 67.9414
20.3666 104.169 67.9407 20.5666 104.169 67.94 20.7666 104.169 67.9393
20.9666 104.169 67.9386 21.1666 104.169 67.9379 21.3666 104.169 67.9372
21.5666 104.169 67.9365 21.7666 104.169 67.9358 21.9666 104.169 67.9351
22.1666 104.169 67.9344 22.3666 104.169 67.9337 22.5666 104.169 67.933
22.7666 104.169 67.9323 22.9666 104.169 67.9316 23.1666 104.169 67.9309
23.3666 104.169 67.9302 23.5666 104.169 67.9295 23.7666 104.169 67.9288
23.9666 104.169 67.9281 24.1666 104.169 67.9274 24.3666 104.169 67.9267
24.5666 104.169 67.926 24.7666 104.169 67.9253 24.9666 104.169 67.9246
25.1666 104.169 67.9239 25.3666 104.169 67.9232 25.5666 104.169 67.9225
25.7666 104.169 67.9219 25.9666 104.169 67.9212 26.1666 104.169 67.9205
26.3666 104.169 67.9198 26.5666 104.169 67.9191 26.7666 104.169 67.9184
26.9666 104.169 67.9178 27.1666 104.169 67.9171 27.3665 104.169 67.9164
27.5665 104.169 67.9157 27.7665 104.169 67.915 27.9665 104.169 67.9144
28.1665 104.169 67.9137 28.3665 104.169 67.913 28.5665 104.169 67.9123
28.7665 104.169 67.9117 28.9665 104.169 67.911 29.1665 104.169 67.9103
29.3665 104.169 67.9097 29.5665 104.169 67.909 29.7665 104.169 67.9083
29.9665 104.169 67.9077 30.1665 104.169 67.907 30.3665 104.169 67.9063
30.5665 104.169 67.9057 30.7665 104.169 67.905 30.9665 104.169 67.9043
31.1665 104.169 67.9037 31.3665 104.169 67.903 31.5665 104.169 67.9024
31.7665 104.169 67.9017 31.9665 104.169 67.9011 32.1665 104.169 67.9004
32.3665 104.169 67.8997 32.5665 104.169 67.8991 32.7665 104.169 67.8984
32.9665 104.169 67.8978 33.1665 104.169 67.8971 33.3665 104.169 67.8965
33.5665 104.169 67.8958 33.7665 104.169 67.8952 33.9665 104.169 67.8946
34.1665 104.169 67.8939 34.3665 104.169 67.8933 34.5665 104.169 67.8926
34.7665 104.169 67.892 34.9665 104.169 67.8913 35.1665 104.169 67.8907
35.3665 104.169 67.8901 35.5665 104.169 67.8894 35.7665 104.169 67.8888
35.9665 104.169 67.8881 36.1665 104.169 67.8875 36.3665 104.169 67.8868
36.5665 104.169 67.8862 36.7665 104.169 67.8855 36.9665 104.169 67.8848
37.1665 104.169 67.884 37.3665 104.169 67.8833 37.5665 104.169 67.8825
37.7665 104.169 67.8817 37.9665 104.169 67.8808 38.1665 104.169 67.8799
38.3665 104.169 67.8789 38.5665 104.169 67.8779 38.7665 104.169 67.8769
38.9665 104.169 67.8758 39.1665 104.169 67.8748 39.3665 104.169 67.8737
39.5665 104.169 67.8725 39.7665 104.169 67.8714 39.9665 104.169 67.8702
40.1665 104.169 67.8691 40.3665 104.169 67.8679 40.5665 104.169 67.8667
40.7664 104.169 67.8655 40.9664 104.169 67.8643 41.1664 104.169 67.8631
41.3664 104.169 67.8619 41.5664 104.169 67.8607 41.7664 104.169 67.8595
41.9664 104.169 67.8583 42.1664 104.169 67.8571 42.3664 104.169 67.8559
42.5664 104.169 67.8547 42.7664 104.169 67.8535 42.9664 104.169 67.8522
43.1664 104.169 67.851 43.3664 104.169 67.8498 43.5664 104.169 67.8486
43.7664 104.169 67.8474 43.9664 104.169 67.8461 44.1664 104.169 67.8449
44.3664 104.169 67.8437 44.5664 104.169 67.8424 44.7664 104.169 67.8412
44.9664 104.169 67.84 45.1664 104.169 67.8387 45.3664 104.169 67.8375
45.5664 104.169 67.8362 45.7664 104.169 67.835 45.9664 104.169 67.8338
46.1663 104.169 67.8325 46.3663 104.169 67.8313 46.5663 104.169 67.83
46.7663 104.169 67.8288 46.9663 104.169 67.8275 47.1663 104.169 67.8263
47.3663 104.169 67.825 47.5663 104.169 67.8238 47.7663 104.169 67.8225
47.9663 104.169 67.8212 48.1663 104.169 67.82 48.3663 104.169 67.8187
48.5663 104.169 67.8174 48.7663 104.169 67.8162 48.9663 104.169 67.8149
49.1663 104.169 67.8136 49.3663 104.169 67.8124 49.5663 104.169 67.8111
49.7663 104.169 67.8098 49.9663 104.169 67.8085 50.1663 104.169 67.8073
50.3663 104.169 67.806 50.5663 104.169 67.8047 50.7663 104.169 67.8034
50.9663 104.169 67.8021 51.1662 104.169 67.8008 51.3662 104.169 67.7995
51.5662 104.169 67.7982 51.7662 104.169 67.7969 51.9662 104.169 67.7956
52.1662 104.169 67.7944 52.3662 104.169 67.793 52.5662 104.169 67.7917
52.7662 104.169 67.7904 52.9662 104.169 67.7891 53.1662 104.169 67.7878
53.3662 104.169 67.7865 53.5662 104.169 67.7852 53.7662 104.169 67.7839
53.9662 104.169 67.7825 54.1662 104.169 67.7812 54.3662 104.169 67.7799
54.5662 104.169 67.7786 54.7662 104.169 67.7772 54.9662 104.169 67.7759
55.1662 104.169 67.7746 55.3662 104.169 67.7733 55.5662 104.169 67.7719
55.7661 104.169 67.7706 55.9661 104.169 67.7692 56.1661 104.169 67.7679
56.3661 104.169 67.7665 56.5661 104.169 67.7652 56.7661 104.169 67.7639
56.9661 104.169 67.7625 57.1661 104.169 67.7611 57.3661 104.169 67.7598
57.5661 104.169 67.7584 57.7661 104.169 67.7571 57.9661 104.169 67.7557
58.1661 104.169 67.7544 58.3661 104.169 67.753 58.5661 104.169 67.7516
58.7661 104.169 67.7502 58.9661 104.169 67.7489 59.1661 104.169 67.7475
59.3661 104.169 67.7461 59.5661 104.169 67.7447 59.7661 104.169 67.7434
59.966 104.169 67.7419 60.166 104.169 67.7406 60.366 104.169 67.7392
60.566 104.169 67.7378 60.766 104.169 67.7364 60.966 104.169 67.735
61.166 104.169 67.7336 61.366 104.169 67.7322 61.566 104.169 67.7308
61.766 104.169 67.7294 61.966 104.169 67.7279 62.166 104.169 67.7266
62.366 104.169 67.7251 62.566 104.169 67.7237 62.766 104.169 67.7223
62.966 104.169 67.7209 63.166 104.169 67.7194 63.366 104.169 67.718
63.566 104.169 67.7166 63.766 104.169 67.7151 63.9659 104.169 67.7137
64.1659 104.169 67.7123 64.3659 104.169 67.7108 64.5659 104.169 67.7094
64.7659 104.169 67.7079 64.9659 104.169 67.7065 65.1659 104.169 67.705
65.3659 104.169 67.7036 65.5659 104.169 67.7021 65.7659 104.169 67.7006
65.9659 104.169 67.6992 66.1659 104.169 67.6977 66.3659 104.169 67.6962
66.5659 104.169 67.6948 66.7659 104.169 67.6933 66.9659 104.169 67.6918
67.1659 104.169 67.6903 67.3659 104.169 67.6888 67.5659 104.169 67.6873
67.7658 104.169 67.6859 67.9658 104.169 67.6844 68.1658 104.169 67.6829
68.3658 104.169 67.6814 68.5658 104.169 67.6799 68.7658 104.169 67.6784
68.9658 104.169 67.6769 69.1658 104.169 67.6753 69.3658 104.169 67.6739
69.5658 104.169 67.6723 69.7658 104.169 67.6708 69.9658 104.169 67.6693
70.1658 104.169 67.6678 70.3658 104.169 67.6662 70.5658 104.169 67.6647
70.7658 104.169 67.6632 70.9658 104.169 67.6616 71.1657 104.169 67.6601
71.3657 104.169 67.6586 71.5657 104.169 67.657 71.7657 104.169 67.6555
71.9657 104.169 67.6539 72.1657 104.169 67.6524 72.3657 104.169 67.6508
72.5657 104.169 67.6492 72.7657 104.169 67.6477 72.9657 104.169 67.6461
73.1657 104.169 67.6445 73.3657 104.169 67.643 73.5657 104.169 67.6414
73.7657 104.169 67.6398 73.9657 104.169 67.6382 74.1657 104.169 67.6366
74.3657 104.169 67.635 74.5656 104.169 67.6335 74.7656 104.169 67.6318
74.9656 104.169 67.6303 75.1656 104.169 67.6286 75.3656 104.169 67.6271
75.5656 104.169 67.6254 75.7656 104.169 67.6238 75.9656 104.169 67.6222
76.1656 104.169 67.6206 76.3656 104.169 67.619 76.5656 104.169 67.6174
76.7656 104.169 67.6157 76.9656 104.169 67.6141 77.1656 104.169 67.6125
77.3656 104.169 67.6108 77.5655 104.169 67.6092 77.7655 104.169 67.6076
77.9655 104.169 67.6059 78.1655 104.169 67.6043 78.3655 104.169 67.6026
78.5655 104.169 67.6009 78.7655 104.169 67.5993 78.9655 104.169 67.5976
79.1655 104.169 67.5959 79.3655 104.169 67.5943 79.5655 104.169 67.5926
79.7655 104.169 67.5909 79.9655 104.169 67.5892 80.1655 104.169 67.5876
80.3654 104.169 67.5859 80.5654 104.169 67.5842 80.7654 104.169 67.5825
80.9654 104.169 67.5808 81.1654 104.169 67.5791 81.3654 104.169 67.5774
81.5654 104.169 67.5757 81.7654 104.169 67.574 81.9654 104.169 67.5723
82.1654 104.169 67.5706 82.3654 104.169 67.5688 82.5654 104.169 67.5671
82.7654 104.169 67.5654 82.9654 104.169 67.5637 83.1653 104.169 67.5619
83.3653 104.169 67.5602 83.5653 104.169 67.5584 83.7653 104.169 67.5567
83.9653 104.169 67.5549 84.1653 104.169 67.5532 84.3653 104.169 67.5514
84.5653 104.169 67.5497 84.7653 104.169 67.5479 84.9653 104.169 67.5462
85.1653 104.169 67.5444 85.3653 104.169 67.5426 85.5653 104.169 67.5408
85.7652 104.169 67.5391 85.9652 104.169 67.5373 86.1652 104.169 67.5355
86.3652 104.169 67.5337 86.5652 104.169 67.5319 86.7652 104.169 67.5301
86.9652 104.169 67.5283 87.1652 104.169 67.5265 87.3652 104.169 67.5247
87.5652 104.169 67.5229 87.7652 104.169 67.5211 87.9652 104.169 67.5193
88.1651 104.169 67.5175 88.3651 104.169 67.5156 88.5651 104.169 67.5138
88.7651 104.169 67.512 88.9651 104.169 67.5101 89.1651 104.169 67.5083
89.3651 104.169 67.5065 89.5651 104.169 67.5046 89.7651 104.169 67.5028
89.9651 104.169 67.5009 90.1651 104.169 67.4991 90.3651 104.169 67.4972
90.565 104.169 67.4953 90.765 104.169 67.4935 90.965 104.169 67.4916
91.165 104.169 67.4897 91.365 104.169 67.4879 91.565 104.169 67.486
91.765 104.169 67.4841 91.965 104.169 67.4822 92.165 104.169 67.4803
92.365 104.169 67.4784 92.565 104.169 67.4765 92.7649 104.169 67.4746
92.9649 104.169 67.4727 93.1649 104.169 67.4708 93.3649 104.169 67.4689
93.5649 104.169 67.467 93.7649 104.169 67.4651 93.9649 104.169 67.4631
94.1649 104.169 67.4612 94.3649 104.169 67.4593 94.5649 104.169 67.4573
94.7649 104.169 67.4554 94.9648 104.169 67.4535 95.1648 104.169 67.4515
95.3648 104.169 67.4496 95.5648 104.169 67.4476 95.7648 104.169 67.4457
95.9648 104.169 67.4437 96.1648 104.169 67.4418 96.3648 104.169 67.4398
96.5648 104.169 67.4378 96.7648 104.169 67.4358 96.9648 104.169 67.4339
97.1647 104.169 67.4319 97.3647 104.169 67.4299 97.5647 104.169 67.4279
97.7647 104.169 67.4259 97.9647 104.169 67.4239 98.1647 104.169 67.4219
98.3647 104.169 67.4199 98.5647 104.169 67.4179 98.7647 104.169 67.4159
98.9647 104.169 67.4139 99.1646 104.169 67.4119 99.3646 104.169 67.4099
99.5646 104.169 67.4079 99.7646 104.169 67.4058 99.9646 104.169 67.4038
100.165 104.169 67.4018 100.365 104.169 67.3998 100.565 104.169 67.3977
100.765 104.169 67.3957 100.965 104.169 67.3936 101.165 104.169 67.3915
101.365 104.169 67.3894 101.565 104.169 67.3873 101.765 104.169 67.3851
101.964 104.169 67.3829 102.164 104.169 67.3807 102.364 104.168 67.3784
102.564 104.168 67.3762 102.764 104.168 67.3739 102.964 104.168 67.3715
103.164 104.168 67.3692 103.364 104.168 67.3668 103.564 104.168 67.3644
103.764 104.168 67.3619 103.964 104.168 67.3595 104.164 104.168 67.357
104.364 104.168 67.3545 104.564 104.167 67.352 104.764 104.167 67.3495
104.964 104.167 67.3469 105.164 104.167 67.3444 105.364 104.166 67.3418
105.564 104.166 67.3392 105.764 104.166 67.3366 105.964 104.165 67.3339
106.164 104.165 67.3313 106.364 104.164 67.3286 106.564 104.164 67.3259
106.764 104.163 67.3232 106.964 104.163 67.3205 107.164 104.162 67.3178
107.364 104.161 67.3151 107.564 104.16 67.3123 107.764 104.159 67.3096
107.964 104.157 67.3068 108.164 104.156 67.304 108.364 104.154 67.3013
108.564 104.153 67.2985 108.764 104.151 67.2956 108.964 104.148 67.2928
109.164 104.146 67.29 109.364 104.143 67.2872 109.564 104.14 67.2843
109.764 104.137 67.2815 109.964 104.133 67.2786 110.164 104.128 67.2758
110.363 104.123 67.2729 110.563 104.118 67.27 110.763 104.112 67.2671
110.963 104.105 67.2642 111.163 104.098 67.2613 111.363 104.089 67.2584
111.563 104.08 67.2555 111.762 104.069 67.2526 111.962 104.057 67.2497
112.161 104.044 67.2467 112.361 104.03 67.2438 112.56 104.014 67.2408
112.759 103.996 67.2379 112.958 103.975 67.2349 113.157 103.953 67.2319
113.355 103.928 67.2289 113.553 103.9 67.2259 113.751 103.869 67.2228
113.948 103.834 67.2197 114.144 103.795 67.2166 114.339 103.751 67.2134
114.533 103.702 67.2102 114.725 103.647 67.2069 114.915 103.585 67.2035
115.103 103.516 67.2 115.288 103.439 67.1964 115.468 103.353 67.1928
115.645 103.259 67.1891 115.817 103.158 67.1853 115.985 103.049 67.1816
116.15 102.936 67.178 116.311 102.818 67.1744 116.471 102.697 67.1709
116.628 102.574 67.1675 116.784 102.449 67.1642 116.939 102.322 67.1609
117.092 102.194 67.1577 117.246 102.066 67.1545 117.398 101.937 67.1514
117.551 101.807 67.1483 117.703 101.678 67.1452 117.856 101.548 67.1422
118.008 101.419 67.1392 118.161 101.29 67.1362 118.314 101.162 67.1332
118.468 101.033 67.1302 118.622 100.906 67.1272 118.776 100.779 67.1242
118.932 100.653 67.1211 119.088 100.528 67.1181 119.244 100.403 67.1151
119.402 100.28 67.112 119.56 100.158 67.109 119.719 100.037 67.1059
119.879 99.9171 67.1028 120.041 99.7989 67.0996 120.203 99.6822 67.0965
120.367 99.5671 67.0933 120.531 99.4538 67.0901 120.697 99.3423 67.0869
120.865 99.2327 67.0837 121.033 99.1252 67.0804 121.203 99.0199 67.0772
121.375 98.9168 67.0739 121.547 98.816 67.0706

LINES 1 609
608 0 1 2 3 4 5 6 7 8 9 10 11 12 13 14 15 16 17 18 19 20 21 22 23 24 25 26 27 28 29 30 31 32 33 34 35 36 37 38 39 40 41 42 43 44 45 46 47 48 49 50 51 52 53 54 55 56 57 58 59 60 61 62 63 64 65 66 67 68 69 70 71 72 73 74 75 76 77 78 79 80 81 82 83 84 85 86 87 88 89 90 91 92 93 94 95 96 97 98 99 100 101 102 103 104 105 106 107 108 109 110 111 112 113 114 115 116 117 118 119 120 121 122 123 124 125 126 127 128 129 130 131 132 133 134 135 136 137 138 139 140 141 142 143 144 145 146 147 148 149 150 151 152 153 154 155 156 157 158 159 160 161 162 163 164 165 166 167 168 169 170 171 172 173 174 175 176 177 178 179 180 181 182 183 184 185 186 187 188 189 190 191 192 193 194 195 196 197 198 199 200 201 202 203 204 205 206 207 208 209 210 211 212 213 214 215 216 217 218 219 220 221 222 223 224 225 226 227 228 229 230 231 232 233 234 235 236 237 238 239 240 241 242 243 244 245 246 247 248 249 250 251 252 253 254 255 256 257 258 259 260 261 262 263 264 265 266 267 268 269 270 271 272 273 274 275 276 277 278 279 280 281 282 283 284 285 286 287 288 289 290 291 292 293 294 295 296 297 298 299 300 301 302 303 304 305 306 307 308 309 310 311 312 313 314 315 316 317 318 319 320 321 322 323 324 325 326 327 328 329 330 331 332 333 334 335 336 337 338 339 340 341 342 343 344 345 346 347 348 349 350 351 352 353 354 355 356 357 358 359 360 361 362 363 364 365 366 367 368 369 370 371 372 373 374 375 376 377 378 379 380 381 382 383 384 385 386 387 388 389 390 391 392 393 394 395 396 397 398 399 400 401 402 403 404 405 406 407 408 409 410 411 412 413 414 415 416 417 418 419 420 421 422 423 424 425 426 427 428 429 430 431 432 433 434 435 436 437 438 439 440 441 442 443 444 445 446 447 448 449 450 451 452 453 454 455 456 457 458 459 460 461 462 463 464 465 466 467 468 469 470 471 472 473 474 475 476 477 478 479 480 481 482 483 484 485 486 487 488 489 490 491 492 493 494 495 496 497 498 499 500 501 502 503 504 505 506 507 508 509 510 511 512 513 514 515 516 517 518 519 520 521 522 523 524 525 526 527 528 529 530 531 532 533 534 535 536 537 538 539 540 541 542 543 544 545 546 547 548 549 550 551 552 553 554 555 556 557 558 559 560 561 562 563 564 565 566 567 568 569 570 571 572 573 574 575 576 577 578 579 580 581 582 583 584 585 586 587 588 589 590 591 592 593 594 595 596 597 598 599 600 601 602 603 604 605 606 607

POINT_DATA 608

FIELD FieldData 3
norm 1 608 float
239.177 219.354 199.507 179.639 159.748 139.836 119.904 99.9543 79.988
60.008 40.0175 20.02 0.0331662 20.02 40.0175 60.008 79.988 99.9543
119.904 139.836 159.748 179.639 199.507 219.354 239.177 258.978 278.756
298.511 318.244 337.954 357.644 377.312 396.959 416.586 436.192 455.78
475.348 494.898 514.43 533.944 553.44 572.919 592.382 611.827 631.257
650.67 670.067 689.449 708.815 728.165 747.5 766.82 786.125 805.414
824.689 843.948 863.192 882.422 901.636 920.835 940.018 959.187 978.34
997.478 1016.6 1035.71 1054.8 1073.87 1092.93 1111.98 1131.01 1150.02
1169.01 1187.99 1206.96 1225.9 1244.83 1263.75 1282.64 1301.52 1320.38
1339.23 1358.06 1376.87 1395.66 1414.43 1433.19 1451.93 1470.65 1489.36
1508.04 1526.71 1545.36 1563.99 1582.6 1601.2 1619.78 1638.33 1656.87
1675.39 1693.89 1712.38 1730.84 1749.29 1767.71 1786.12 1804.51 1822.88
1841.23 1859.57 1877.88 1896.17 1914.45 1932.71 1950.95 1969.16 1987.37
2005.55 2023.71 2041.85 2059.98 2078.09 2096.17 2114.23 2132.27 2150.28
2168.26 2186.22 2204.15 2222.06 2239.93 2257.79 2275.62 2293.42 2311.2
2328.95 2346.68 2364.38 2382.06 2399.72 2417.36 2434.97 2452.56 2470.12
2487.67 2505.19 2522.7 2540.18 2557.64 2575.08 2592.5 2609.91 2627.29
2644.66 2662 2679.33 2696.64 2713.93 2731.21 2748.47 2765.71 2782.94
2800.15 2817.34 2834.52 2851.68 2868.83 2885.97 2903.09 2920.22 2937.36
2954.53 2971.73 2988.97 3006.26 3023.61 3041.03 3058.55 3076.15 3093.84
3111.61 3129.44 3147.33 3165.25 3183.21 3201.2 3219.23 3237.28 3255.37
3273.48 3291.61 3309.75 3327.89 3346.04 3364.18 3382.32 3400.45 3418.58
3436.7 3454.81 3472.91 3491 3509.07 3527.14 3545.2 3563.25 3581.29
3599.31 3617.33 3635.34 3653.33 3671.32 3689.29 3707.25 3725.21 3743.15
3761.08 3779 3796.91 3814.81 3832.7 3850.57 3868.44 3886.3 3904.14
3921.98 3939.8 3957.61 3975.41 3993.2 4010.98 4028.75 4046.51 4064.25
4081.99 4099.71 4117.43 4135.13 4152.82 4170.5 4188.17 4205.83 4223.47
4241.11 4258.73 4276.34 4293.95 4311.54 4329.11 4346.68 4364.24 4381.78
4399.32 4416.84 4434.35 4451.85 4469.33 4486.81 4504.27 4521.73 4539.17
4556.6 4574.01 4591.42 4608.82 4626.2 4643.57 4660.93 4678.28 4695.62
4712.94 4730.25 4747.56 4764.84 4782.12 4799.39 4816.64 4833.89 4851.12
4868.34 4885.54 4902.74 4919.92 4937.1 4954.26 4971.4 4988.54 5005.66
5022.78 5039.88 5056.97 5074.04 5091.11 5108.16 5125.2 5142.23 5159.25
5176.26 5193.25 5210.24 5227.21 5244.16 5261.11 5278.05 5294.97 5311.88
5328.78 5345.67 5362.54 5379.41 5396.26 5413.1 5429.93 5446.75 5463.55
5480.35 5497.13 5513.9 5530.66 5547.41 5564.14 5580.87 5597.58 5614.28
5630.97 5647.65 5664.31 5680.97 5697.61 5714.24 5730.87 5747.48 5764.07
5780.66 5797.24 5813.8 5830.35 5846.9 5863.43 5879.95 5896.46 5912.95
5929.44 5945.92 5962.38 5978.84 5995.28 6011.71 6028.14 6044.55 6060.95
6077.34 6093.72 6110.09 6126.45 6142.8 6159.13 6175.46 6191.78 6208.09
6224.39 6240.67 6256.95 6273.22 6289.48 6305.73 6321.96 6338.19 6354.41
6370.62 6386.82 6403.01 6419.19 6435.36 6451.53 6467.68 6483.82 6499.96
6516.09 6532.2 6548.31 6564.41 6580.5 6596.59 6612.66 6628.73 6644.78
6660.83 6676.87 6692.91 6708.93 6724.95 6740.96 6756.96 6772.95 6788.94
6804.91 6820.88 6836.85 6852.8 6868.75 6884.69 6900.63 6916.56 6932.48
6948.39 6964.3 6980.2 6996.09 7011.98 7027.86 7043.73 7059.6 7075.46
7091.32 7107.17 7123.02 7138.85 7154.69 7170.52 7186.34 7202.16 7217.97
7233.77 7249.57 7265.37 7281.16 7296.95 7312.73 7328.51 7344.28 7360.05
7375.81 7391.57 7407.33 7423.08 7438.83 7454.57 7470.31 7486.05 7501.78
7517.51 7533.24 7548.96 7564.68 7580.4 7596.11 7611.82 7627.53 7643.23
7658.94 7674.64 7690.33 7706.03 7721.72 7737.41 7753.1 7768.79 7784.47
7800.15 7815.83 7831.51 7847.19 7862.87 7878.54 7894.21 7909.89 7925.56
7941.23 7956.9 7972.56 7988.23 8003.9 8019.56 8035.23 8050.9 8066.56
8082.22 8097.89 8113.55 8129.22 8144.88 8160.55 8176.21 8191.87 8207.54
8223.2 8238.87 8254.54 8270.2 8285.87 8301.54 8317.21 8332.88 8348.55
8364.22 8379.9 8395.57 8411.25 8426.93 8442.61 8458.29 8473.97 8489.65
8505.34 8521.02 8536.71 8552.4 8568.1 8583.79 8599.49 8615.19 8630.89
8646.59 8662.3 8678.01 8693.72 8709.43 8725.14 8740.86 8756.58 8772.3
8788.03 8803.76 8819.49 8835.22 8850.96 8866.69 8882.44 8898.18 8913.92
8929.67 8945.42 8961.17 8976.93 8992.68 9008.44 9024.19 9039.95 9055.7
9071.46 9087.2 9102.95 9118.68 9134.4 9150.11 9165.8 9181.47 9197.11
9212.7 9228.25 9243.74 9259.14 9274.45 9289.63 9304.65 9319.48 9334.07
9348.34 9362.24 9375.64 9388.44 9400.47 9411.52 9421.33 9429.54 9435.73
9439.31 9439.63 9435.97 9427.73 9414.57 9396.5 9373.83 9347.1 9317.02
9284.38 9250.04 9214.78 9179.32 9144.26 9110.08 9077.16 9045.77 9016.1
8988.28 8962.36 8938.36 8916.26 8896.03 8877.59 8860.89 8845.85 8832.37
8820.38 8809.79 8800.52 8792.5 8785.64 8779.88 8775.14 8771.37 8768.51
8766.49 8765.26 8764.78 8764.99 8765.86
FreeWater 1 608 float
0.0305783 0.0289162 0.0270492 0.024954 0.0226088 0.0199945 0.017099 0.0139233 0.0104958
0.00691234 0.00297185 0 0 0 0.00297185 0.00691234 0.0104958 0.0139233
0.017099 0.0199945 0.0226088 0.024954 0.0270492 0.0289162 0.0305783 0.0320581 0.0333772
0.0345557 0.035612 0.0365623 0.0374213 0.0382016 0.0389145 0.0395695 0.040175 0.0407381
0.0412648 0.0417604 0.0422292 0.042675 0.0431009 0.0435095 0.0439031 0.0442835 0.0446523
0.045011 0.0453604 0.0457017 0.0460355 0.0463626 0.0466835 0.0469987 0.0473085 0.0476134
0.0479135 0.0482093 0.0485008 0.0487882 0.0490718 0.0493517 0.049628 0.0499009 0.0501703
0.0504366 0.0506996 0.0509596 0.0512167 0.0514708 0.051722 0.0519706 0.0522164 0.0524596
0.0527003 0.0529384 0.0531742 0.0534076 0.0536387 0.0538676 0.0540943 0.0543189 0.0545415
0.054762 0.0549806 0.0551974 0.0554123 0.0556254 0.0558368 0.0560465 0.0562546 0.0564611
0.0566661 0.0568697 0.0570718 0.0572725 0.057472 0.0576701 0.057867 0.0580627 0.0582573
0.0584508 0.0586432 0.0588346 0.059025 0.0592145 0.0594031 0.0595908 0.0597777 0.0599639
0.0601493 0.060334 0.0605181 0.0607015 0.0608844 0.0610667 0.0612484 0.0614297 0.0616106
0.061791 0.0619711 0.0621508 0.0623302 0.0625094 0.0626991 0.0629001 0.0631071 0.0633189
0.0635336 0.063751 0.0639703 0.0641915 0.0644144 0.0646387 0.0648646 0.0650918 0.0653204
0.0655503 0.0657814 0.0660138 0.0662474 0.0664821 0.066718 0.0669549 0.0671928 0.0674318
0.0676717 0.0679126 0.0681543 0.068397 0.0686404 0.0688847 0.0691298 0.0693756 0.0696221
0.0698694 0.0701173 0.0703658 0.0706149 0.0708647 0.071115 0.0713659 0.0716172 0.0718691
0.0721215 0.0723743 0.0726276 0.0728813 0.0731354 0.0733899 0.0741832 0.0752394 0.0767325
0.0788831 0.0819321 0.0861441 0.0917754 0.0990287 0.108424 0.119526 0.132211 0.146214
0.161147 0.176531 0.191836 0.206537 0.220954 0.233496 0.244205 0.253201 0.260672
0.26684 0.271954 0.276237 0.279872 0.283007 0.285754 0.288201 0.290414 0.292445
0.294332 0.296105 0.297788 0.299398 0.300949 0.302451 0.303913 0.305341 0.30674
0.308114 0.309466 0.310799 0.312114 0.313414 0.314698 0.31597 0.317228 0.318475
0.31971 0.320933 0.322146 0.323349 0.324541 0.325723 0.326895 0.328058 0.329211
0.330354 0.331488 0.332613 0.333729 0.334835 0.335933 0.337021 0.338101 0.339171
0.340233 0.341286 0.34233 0.343365 0.344392 0.345409 0.346419 0.34742 0.348412
0.349396 0.350371 0.351338 0.352296 0.353246 0.354188 0.355122 0.356047 0.356965
0.357874 0.358775 0.359667 0.360552 0.361429 0.362298 0.363159 0.364012 0.364857
0.365695 0.366525 0.367346 0.368161 0.368967 0.369766 0.370558 0.371341 0.372118
0.372887 0.373648 0.374402 0.375149 0.375889 0.376614 0.37734 0.378056 0.378767
0.37947 0.380167 0.380857 0.381539 0.382215 0.382883 0.383545 0.384199 0.384847
0.385488 0.386116 0.386744 0.387363 0.387977 0.388584 0.389185 0.389779 0.390367
0.390948 0.391522 0.39209 0.392652 0.393207 0.393756 0.394298 0.394834 0.395359
0.395883 0.396399 0.396911 0.397416 0.397916 0.398409 0.398896 0.399378 0.399853
0.400322 0.400786 0.401243 0.401695 0.402141 0.402581 0.403015 0.403444 0.403866
0.404284 0.404691 0.405098 0.405498 0.405894 0.406284 0.406668 0.407048 0.407422
0.40779 0.408153 0.408511 0.408864 0.409212 0.409554 0.409891 0.410223 0.41055
0.410872 0.411189 0.4115 0.411807 0.412109 0.412407 0.412699 0.412986 0.413269
0.413547 0.41382 0.414089 0.414353 0.414609 0.414864 0.415114 0.41536 0.415602
0.415839 0.416072 0.4163 0.416524 0.416743 0.416959 0.41717 0.417376 0.417579
0.417777 0.417972 0.418162 0.418348 0.41853 0.418708 0.418882 0.419052 0.419218
0.41938 0.419538 0.419693 0.419844 0.419991 0.420134 0.420274 0.42041 0.420543
0.420672 0.420797 0.420919 0.421037 0.421152 0.421263 0.421372 0.421476 0.421578
0.421676 0.421771 0.421862 0.421951 0.422036 0.422118 0.422197 0.422273 0.422346
0.422416 0.422483 0.422547 0.422608 0.422666 0.422722 0.422774 0.422824 0.422871
0.422915 0.422957 0.422996 0.423032 0.423066 0.423097 0.423126 0.423152 0.423175
0.423197 0.423215 0.423232 0.423246 0.423258 0.423267 0.423275 0.42328 0.423282
0.423283 0.423282 0.423278 0.423272 0.423265 0.423255 0.423243 0.42323 0.423214
0.423197 0.423177 0.423156 0.423133 0.423109 0.423082 0.423054 0.423024 0.422993
0.42296 0.422925 0.422889 0.422851 0.422811 0.422771 0.422728 0.422685 0.422639
0.422593 0.422545 0.422496 0.422445 0.422394 0.422341 0.422287 0.422231 0.422175
0.422117 0.422058 0.421999 0.421938 0.421876 0.421813 0.421749 0.421684 0.421619
0.421552 0.421485 0.421416 0.421347 0.421277 0.421206 0.421135 0.421063 0.42099
0.420916 0.420842 0.420767 0.420692 0.420616 0.420539 0.420462 0.420384 0.420306
0.420228 0.420148 0.420069 0.419989 0.419907 0.419824 0.41974 0.419656 0.419572
0.419487 0.419403 0.419319 0.419235 0.419151 0.419067 0.418983 0.418899 0.418816
0.418732 0.418649 0.418566 0.418482 0.418399 0.418316 0.418233 0.41815 0.418067
0.417984 0.417901 0.417818 0.417735 0.417653 0.41757 0.417488 0.417405 0.417323
0.417241 0.417159 0.417076 0.416994 0.416911 0.416828 0.416745 0.416662 0.416577
0.416492 0.416405 0.416317 0.416227 0.416134 0.416038 0.415938 0.415832 0.41572
0.4156 0.415469 0.415326 0.415167 0.414988 0.414784 0.41455 0.414277 0.413957
0.413577 0.413123 0.412574 0.411905 0.411085 0.410072 0.408813 0.407243 0.405286
0.40287 0.399956 0.396587 0.392934 0.389274 0.385894 0.382987 0.380617 0.378756
0.377326 0.376243 0.375428 0.374816 0.374359 0.374017 0.37376 0.373568 0.373425
0.373317 0.373236 0.373175 0.373129 0.373094 0.373068 0.373048 0.373033 0.373021
0.373011 0.373003 0.372995 0.372988 0.372981 0.372973 0.372964 0.372954 0.372942
0.372928 0.372913 0.372895 0.372876 0.372855
NMSE 1 608 float
0.0185146 0.0184007 0.0182614 0.0180923 0.0178881 0.0176431 0.0173507 0.017003 0.0165881
0.0160775 0.0154139 0.01453 0 0.01453 0.0154139 0.0160775 0.0165881 0.017003
0.0173507 0.0176431 0.0178881 0.0180923 0.0182614 0.0184007 0.0185146 0.0186069 0.0186808
0.0187391 0.0187839 0.0188174 0.018841 0.0188563 0.0188645 0.0188664 0.0188631 0.0188552
0.0188434 0.0188282 0.0188101 0.0187895 0.0187667 0.018742 0.0187156 0.0186878 0.0186588
0.0186286 0.0185975 0.0185656 0.0185329 0.0184995 0.0184656 0.0184311 0.0183962 0.0183609
0.0183253 0.0182893 0.018253 0.0182165 0.0181798 0.0181428 0.0181057 0.0180684 0.018031
0.0179935 0.0179558 0.0179181 0.0178803 0.0178424 0.0178044 0.0177664 0.0177283 0.0176902
0.0176521 0.0176139 0.0175758 0.0175376 0.0174994 0.0174612 0.0174231 0.0173849 0.0173467
0.0173086 0.0172704 0.0172323 0.0171942 0.0171561 0.0171181 0.0170801 0.0170421 0.0170042
0.0169663 0.0169284 0.0168905 0.0168527 0.016815 0.0167773 0.0167396 0.0167019 0.0166644
0.0166268 0.0165893 0.0165519 0.0165145 0.0164771 0.0164398 0.0164025 0.0163653 0.0163282
0.0162911 0.016254 0.016217 0.0161801 0.0161432 0.0161063 0.0160695 0.0160328 0.0159961
0.0159595 0.0159229 0.0158864 0.0158499 0.0158135 0.0157776 0.0157422 0.0157069 0.0156718
0.0156365 0.0156011 0.0155655 0.0155297 0.0154937 0.0154576 0.0154213 0.0153849 0.0153483
0.0153115 0.0152747 0.0152377 0.0152006 0.0151635 0.0151262 0.0150889 0.0150515 0.0150141
0.0149766 0.014939 0.0149015 0.0148639 0.0148263 0.0147887 0.0147511 0.0147135 0.0146759
0.0146383 0.0146008 0.0145633 0.0145258 0.0144884 0.014451 0.0144137 0.0143764 0.0143392
0.0143021 0.0142651 0.0142281 0.0141912 0.0141544 0.0141176 0.0133079 0.0128478 0.012296
0.0117912 0.0116368 0.0123421 0.0145544 0.0188104 0.0264912 0.0347592 0.0434805 0.0514915
0.0580066 0.0627541 0.0658624 0.0676678 0.0708614 0.0700469 0.0694381 0.0689819 0.0686285
0.0683543 0.0681334 0.0679471 0.0677828 0.0676326 0.0674914 0.0673559 0.067224 0.0670945
0.0669665 0.0668396 0.0667134 0.0665878 0.0664626 0.0663378 0.0662134 0.0660893 0.0659656
0.0658423 0.0657194 0.0655969 0.0654748 0.0653532 0.065232 0.0651112 0.0649909 0.0648711
0.0647518 0.0646329 0.0645146 0.0643967 0.0642793 0.0641624 0.064046 0.06393 0.0638146
0.0636996 0.0635852 0.0634712 0.0633576 0.0632446 0.063132 0.0630199 0.0629083 0.0627972
0.0626865 0.0625762 0.0624664 0.0623571 0.0622483 0.0621398 0.0620318 0.0619243 0.0618172
0.0617106 0.0616043 0.0614985 0.0613932 0.0612882 0.0611837 0.0610796 0.0609759 0.0608727
0.0607698 0.0606674 0.0605654 0.0604637 0.0603625 0.0602617 0.0601612 0.0600612 0.0599615