# vtk DataFile Version 3.0
Tracts generated with tensor 1
ASCII
DATASET POLYDATA
POINTS 280 float
56.6076 104.169 62.0752 56.417 104.169 62.1359 56.2265 104.169 62.1967
56.0359 104.169 62.2576 55.8454 104.169 62.3185 55.655 104.169 62.3795
55.4645 104.169 62.4405 55.2741 104.169 62.5017 55.0837 104.169 62.5629
54.8933 104.169 62.6242 54.703 104.169 62.6856 54.5126 104.169 62.747
54.3224 104.169 62.8086 54.1321 104.169 62.8702 53.9418 104.169 62.9319
53.7516 104.169 62.9937 53.5614 104.169 63.0555 53.3713 104.169 63.1175
53.1811 104.169 63.1795 52.991 104.169 63.2417 52.8009 104.169 63.3039
52.6109 104.169 63.3662 52.4209 104.169 63.4286 52.2309 104.169 63.4911
52.0409 104.169 63.5536 51.851 104.169 63.6163 51.6611 104.169 63.6791
51.4712 104.169 63.7419 51.2814 104.169 63.8048 51.0916 104.169 63.8679
50.9018 104.169 63.931 50.7121 104.169 63.9943 50.5224 104.169 64.0576
50.3327 104.169 64.121 50.1431 104.169 64.1846 49.9535 104.169 64.2482
49.7639 104.169 64.312 49.5744 104.169 64.3758 49.3849 104.169 64.4398
49.1954 104.169 64.5038 49.006 104.169 64.568 48.8166 104.169 64.6322
48.6272 104.169 64.6966 48.4379 104.169 64.7611 48.2486 104.169 64.8257
48.0594 104.169 64.8904 47.8702 104.169 64.9552 47.681 104.169 65.0202
47.4919 104.169 65.0852 47.3028 104.169 65.1504 47.1137 104.169 65.2156
46.9247 104.169 65.281 46.7358 104.169 65.3465 46.5468 104.169 65.4122
46.3579 104.169 65.4779 46.1691 104.169 65.5437 45.9803 104.169 65.6097
45.7915 104.169 65.6758 45.6028 104.169 65.742 45.4141 104.169 65.8083
45.2254 104.169 65.8747 45.0368 104.169 65.9412 44.8483 104.169 66.0078
44.6597 104.169 66.0746 44.4712 104.169 66.1414 44.2828 104.169 66.2083
44.0943 104.169 66.2754 43.9059 104.169 66.3425 43.7175 104.169 66.4097
43.5292 104.169 66.4769 43.3409 104.169 66.5442 43.1525 104.169 66.6116
42.9642 104.169 66.679 42.7759 104.169 66.7464 42.5876 104.169 66.8138
42.3993 104.169 66.8812 42.211 104.169 66.9485 42.0226 104.169 67.0157
41.8342 104.169 67.0828 41.6457 104.169 67.1497 41.4571 104.169 67.2163
41.2685 104.169 67.2826 41.0796 104.169 67.3485 40.8906 104.169 67.4139
40.7014 104.169 67.4786 40.5119 104.169 67.5425 40.322 104.169 67.6052
40.1316 104.169 67.6665 39.9405 104.169 67.7257 39.7486 104.169 67.7818
39.5553 104.169 67.8333 39.3603 104.169 67.8779 39.1635 104.169 67.9134
38.9652 104.169 67.9396 38.7661 104.169 67.9579 38.5664 104.169 67.97
38.3666 104.169 67.9779 38.1667 104.169 67.9828 37.9667 104.169 67.9858
37.7667 104.169 67.9875 37.5667 104.169 67.9885 37.3667 104.169 67.989
37.1667 104.169 67.9892 36.9667 104.169 67.9893 36.7667 104.169 67.9893
36.5667 104.169 67.9892 36.3667 104.169 67.9892 36.1667 104.169 67.9892
35.9667 104.169 67.9893 35.7667 104.169 67.9893 35.5667 104.169 67.9893
35.3667 104.169 67.9894 35.1667 104.169 67.9894 34.9667 104.169 67.9895
34.7667 104.169 67.9896 34.5667 104.169 67.9896 34.3667 104.169 67.9897
34.1667 104.169 67.9897 33.9667 104.169 67.9898 33.7667 104.169 67.9899
33.5667 104.169 67.9899 33.3667 104.169 67.99 33.1667 104.169 67.9901
32.9667 104.169 67.9901 32.7667 104.169 67.9902 32.5667 104.169 67.9902
32.3667 104.169 67.9903 32.1667 104.169 67.9904 31.9667 104.169 67.9904
31.7667 104.169 67.9905 31.5667 104.169 67.9905 31.3667 104.169 67.9906
31.1667 104.169 67.9907 30.9667 104.169 67.9907 30.7667 104.169 67.9908
30.5667 104.169 67.9909 30.3667 104.169 67.9909 30.1667 104.169 67.991
29.9667 104.169 67.991 29.7667 104.169 67.9911 29.5667 104.169 67.9912
29.3667 104.169 67.9912 29.1667 104.169 67.9913 28.9667 104.169 67.9914
28.7667 104.169 67.9914 28.5667 104.169 67.9915 28.3667 104.169 67.9916
28.1667 104.169 67.9916 27.9667 104.169 67.9917 27.7667 104.169 67.9917
27.5667 104.169 67.9918 27.3667 104.169 67.9919 27.1667 104.169 67.9919
26.9667 104.169 67.992 26.7667 104.169 67.9921 26.5667 104.169 67.9921
26.3667 104.169 67.9922 26.1667 104.169 67.9923 25.9667 104.169 67.9923
25.7667 104.169 67.9924 25.5667 104.169 67.9925 25.3667 104.169 67.9925
25.1667 104.169 67.9926 24.9667 104.169 67.9927 24.7667 104.169 67.9927
24.5667 104.169 67.9928 24.3667 104.169 67.9929 24.1667 104.169 67.9929
23.9667 104.169 67.993 23.7667 104.169 67.993 23.5667 104.169 67.9931
23.3667 104.169 67.9932 23.1667 104.169 67.9932 22.9667 104.169 67.9933
22.7667 104.169 67.9934 22.5667 104.169 67.9935 22.3667 104.169 67.9935
22.1667 104.169 67.9936 21.9667 104.169 67.9937 21.7667 104.169 67.9937
21.5667 104.169 67.9938 21.3667 104.169 67.9939 21.1667 104.169 67.9939
20.9667 104.169 67.994 20.7667 104.169 67.9941 20.5667 104.169 67.9941
20.3667 104.169 67.9942 20.1667 104.169 67.9943 19.9667 104.169 67.9943
19.7667 104.169 67.9944 19.5667 104.169 67.9945 19.3667 104.169 67.9945
19.1667 104.169 67.9946 18.9667 104.169 67.9947 18.7667 104.169 67.9948
18.5667 104.169 67.9948 18.3667 104.169 67.9949 18.1667 104.169 67.995
17.9667 104.169 67.995 17.7667 104.169 67.9951 17.5667 104.169 67.9952
17.3667 104.169 67.9953 17.1667 104.169 67.9953 16.9667 104.169 67.9954
16.7667 104.169 67.9955 16.5667 104.169 67.9955 16.3667 104.169 67.9956
16.1667 104.169 67.9957 15.9667 104.169 67.9958 15.7667 104.169 67.9958
15.5667 104.169 67.9959 15.3667 104.169 67.996 15.1667 104.169 67.996
14.9667 104.169 67.9961 14.7667 104.169 67.9962 14.5667 104.169 67.9963
14.3667 104.169 67.9963 14.1667 104.169 67.9964 13.9667 104.169 67.9965
13.7667 104.169 67.9966 13.5667 104.169 67.9966 13.3667 104.169 67.9967
13.1667 104.169 67.9968 12.9667 104.169 67.9969 12.7667 104.169 67.9969
12.5667 104.169 67.997 12.3667 104.169 67.9971 12.1667 104.169 67.9972
11.9667 104.169 67.9972 11.7667 104.169 67.9973 11.5667 104.169 67.9974
11.3667 104.169 67.9975 11.1667 104.169 67.9975 10.9667 104.169 67.9976
10.7667 104.169 67.9977 10.5667 104.169 67.9978 10.3667 104.169 67.9978
10.1667 104.169 67.9979 9.9667 104.169 67.998 9.7667 104.169 67.9981
9.5667 104.169 67.9981 9.3667 104.169 67.9982 9.1667 104.169 67.9983
8.9667 104.169 67.9984 8.7667 104.169 67.9984 8.5667 104.169 67.9985
8.3667 104.169 67.9986 8.1667 104.169 67.9987 7.9667 104.169 67.9987
7.7667 104.169 67.9988 7.5667 104.169 67.9989 7.3667 104.169 67.999
7.1667 104.169 67.999 6.9667 104.169 67.9991 6.7667 104.169 67.9992
6.5667 104.169 67.9992 6.3667 104.169 67.9993 6.1667 104.169 67.9994
5.9667 104.169 67.9995 5.7667 104.169 67.9995 5.5667 104.169 67.9996
5.3667 104.169 67.9997 5.1667 104.169 67.9997 4.9667 104.169 67.9998
4.7667 104.169 67.9998 4.5667 104.169 67.9999 4.3667 104.169 68
4.1667 104.169 68 3.9667 104.169 68 3.7667 104.169 68.0001
3.5667 104.169 68.0002 3.3667 104.169 68.0002 3.1667 104.169 68.0003
2.9667 104.169 68.0003 2.7667 104.169 68.0004 2.5667 104.169 68.0005
2.3667 104.169 68.0005 2.1667 104.169 68.0006 1.9667 104.169 68.0007
1.7667 104.169 68.0008

LINES 1 281
280 0 1 2 3 4 5 6 7 8 9 10 11 12 13 14 15 16 17 18 19 20 21 22 23 24 25 26 27 28 29 30 31 32 33 34 35 36 37 38 39 40 41 42 43 44 45 46 47 48 49 50 51 52 53 54 55 56 57 58 59 60 61 62 63 64 65 66 67 68 69 70 71 72 73 74 75 76 77 78 79 80 81 82 83 84 85 86 87 88 89 90 91 92 93 94 95 96 97 98 99 100 101 102 103 104 105 106 107 108 109 110 111 112 113 114 115 116 117 118 119 120 121 122 123 124 125 126 127 128 129 130 131 132 133 134 135 136 137 138 139 140 141 142 143 144 145 146 147 148 149 150 151 152 153 154 155 156 157 158 159 160 161 162 163 164 165 166 167 168 169 170 171 172 173 174 175 176 177 178 179 180 181 182 183 184 185 186 187 188 189 190 191 192 193 194 195 196 197 198 199 200 201 202 203 204 205 206 207 208 209 210 211 212 213 214 215 216 217 218 219 220 221 222 223 224 225 226 227 228 229 230 231 232 233 234 235 236 237 238 239 240 241 242 243 244 245 246 247 248 249 250 251 252 253 254 255 256 257 258 259 260 261 262 263 264 265 266 267 268 269 270 271 272 273 274 275 276 277 278 279

POINT_DATA 280
FIELD FieldData 3
norm 1 280 float
4340.4 4325.76 4311.13 4296.5 4281.87 4267.24 4252.62 4237.99 4223.38
4208.76 4194.15 4179.54 4164.94 4150.34 4135.74 4121.15 4106.56 4091.98
4077.4 4062.83 4048.27 4033.71 4019.16 4004.62 3990.08 3975.55 3961.03
3946.52 3932.01 3917.52 3903.03 3888.55 3874.08 3859.63 3845.18 3830.75
3816.33 3801.92 3787.52 3773.13 3758.76 3744.41 3730.06 3715.74 3701.43
3687.13 3672.85 3658.59 3644.35 3630.12 3615.92 3601.73 3587.57 3573.42
3559.3 3545.2 3531.12 3517.07 3503.03 3489.03 3475.05 3461.09 3447.16
3433.25 3419.37 3405.52 3391.69 3377.88 3364.1 3350.34 3336.61 3322.89
3309.2 3295.52 3281.85 3268.19 3254.54 3240.89 3227.23 3213.58 3199.91
3186.24 3172.55 3158.87 3145.2 3131.54 3117.92 3104.31 3090.65 3076.75
3062.3 3047.05 3031.11 3014.76 2998.2 2981.55 2964.87 2948.18 2931.5
2914.83 2898.17 2881.53 2864.9 2848.29 2831.68 2815.09 2798.5 2781.91
2765.32 2748.74 2732.15 2715.56 2698.97 2682.38 2665.78 2649.18 2632.58
2615.97 2599.37 2582.76 2566.15 2549.53 2532.91 2516.29 2499.67 2483.05
2466.42 2449.79 2433.16 2416.53 2399.9 2383.26 2366.62 2349.98 2333.34
2316.7 2300.06 2283.41 2266.77 2250.12 2233.47 2216.82 2200.17 2183.51
2166.86 2150.21 2133.55 2116.9 2100.24 2083.58 2066.92 2050.26 2033.6
2016.94 2000.28 1983.62 1966.96 1950.29 1933.63 1916.97 1900.3 1883.64
1866.97 1850.3 1833.64 1816.97 1800.3 1783.63 1766.95 1750.28 1733.61
1716.93 1700.26 1683.58 1666.9 1650.21 1633.53 1616.84 1600.15 1583.46
1566.76 1550.06 1533.36 1516.65 1499.93 1483.22 1466.49 1449.76 1433.02
1416.28 1399.53 1382.77 1366 1349.22 1332.43 1315.63 1298.82 1282
1265.16 1248.3 1231.43 1214.55 1197.65 1180.72 1163.78 1146.82 1129.83
1112.82 1095.79 1078.72 1061.63 1044.51 1027.36 1010.18 992.96 975.705
958.413 941.081 923.708 906.291 888.83 871.322 853.765 836.158 818.499
800.786 783.018 765.191 747.306 729.36 711.352 693.28 675.142 656.938
638.667 620.326 601.916 583.435 564.883 546.259 527.562 508.794 489.953
471.04 452.055 433 413.874 394.68 375.418 356.09 336.697 317.243
297.728 278.157 258.53 238.852 219.125 199.353 179.54 159.689 139.804
119.889 99.948 79.9863 60.0079 40.0176 20.02 0.0316228 20.02 40.0176
60.0079 79.9863 99.948 119.889 139.804 159.689 179.54 199.353 219.125
238.852
FA 1 280 float
0.619369 0.619725 0.620083 0.620443 0.620805 0.621169 0.621535 0.621903 0.622274
0.622646 0.623022 0.623399 0.623779 0.624161 0.624546 0.624933 0.625323 0.625715
0.62611 0.626508 0.626909 0.627312 0.627718 0.628127 0.62854 0.628955 0.629373
0.629794 0.630219 0.630647 0.631078 0.631513 0.631951 0.632392 0.632837 0.633286
0.633738 0.634194 0.634654 0.635117 0.635585 0.636056 0.636532 0.637012 0.637496
0.637984 0.638476 0.638973 0.639475 0.63998 0.640491 0.641006 0.641526 0.642051
0.642581 0.643115 0.643655 0.6442 0.64475 0.645305 0.645866 0.646432 0.647004
0.647581 0.648164 0.648752 0.649346 0.649947 0.650553 0.651164 0.651782 0.652406
0.653037 0.653673 0.654315 0.654963 0.655618 0.656278 0.656944 0.657616 0.658293
0.658974 0.659661 0.66035 0.661041 0.661733 0.662422 0.663104 0.663775 0.664431
0.665084 0.665778 0.66656 0.667439 0.668394 0.669405 0.670457 0.67151 0.672569
0.673621 0.674647 0.675625 0.676531 0.677341 0.678036 0.678583 0.679007 0.679317
0.679532 0.679673 0.679758 0.679805 0.679827 0.679811 0.679794 0.679778 0.679761
0.679744 0.679728 0.679711 0.679694 0.679677 0.67966 0.679643 0.679626 0.679609
0.679591 0.679574 0.679556 0.679539 0.679521 0.679503 0.679485 0.679467 0.679449
0.679431 0.679412 0.679394 0.679375 0.679356 0.679337 0.679318 0.679299 0.679279
0.67926 0.67924 0.67922 0.6792 0.67918 0.67916 0.679139 0.679119 0.679098
0.679077 0.679055 0.679034 0.679012 0.67899 0.678968 0.678946 0.678923 0.6789
0.678877 0.678854 0.67883 0.678806 0.678782 0.678758 0.678733 0.678708 0.678683
0.678658 0.678632 0.678606 0.67858 0.678553 0.678526 0.678499 0.678471 0.678443
0.678415 0.678386 0.678357 0.678328 0.678298 0.678268 0.678238 0.678207 0.678176
0.678145 0.678113 0.67808 0.678048 0.678015 0.677982 0.677948 0.677914 0.677879
0.677845 0.677809 0.677774 0.677738 0.677702 0.677665 0.677628 0.677591 0.677553
0.677515 0.677476 0.677438 0.677399 0.67736 0.67732 0.67728 0.67724 0.6772
0.677159 0.677119 0.677078 0.677037 0.676996 0.676955 0.676914 0.676872 0.676831
0.67679 0.676749 0.676707 0.676667 0.676626 0.676585 0.676545 0.676505 0.676466
0.676426 0.676388 0.676349 0.676312 0.676275 0.676238 0.676203 0.676168 0.676134
0.6761 0.676068 0.676037 0.676007 0.675978 0.67595 0.675923 0.675898 0.675873
0.675851 0.675829 0.67581 0.675791 0.675774 0.675759 0.675745 0.675733 0.675723
0.675714 0.675707 0.675701 0.675696 0.675693 0.675692 0.675692 0.675692 0.675693
0.675696 0.675701 0.675707 0.675714 0.675723 0.675733 0.675745 0.675759 0.675774
0.675791
FA2 1 280 float
0.62461 0.624909 0.62521 0.625513 0.625818 0.626125 0.626434 0.626745 0.627059
0.627375 0.627693 0.628014 0.628336 0.628662 0.628989 0.62932 0.629653 0.629988
0.630326 0.630667 0.63101 0.631356 0.631705 0.632057 0.632412 0.63277 0.633131
0.633495 0.633862 0.634232 0.634605 0.634982 0.635361 0.635745 0.636131 0.636521
0.636915 0.637312 0.637713 0.638117 0.638526 0.638938 0.639353 0.639773 0.640197
0.640624 0.641056 0.641492 0.641932 0.642377 0.642825 0.643278 0.643736 0.644197
0.644664 0.645135 0.645611 0.646091 0.646577 0.647067 0.647562 0.648062 0.648567
0.649078 0.649594 0.650115 0.650641 0.651173 0.65171 0.652253 0.652802 0.653356
0.653917 0.654483 0.655055 0.655634 0.656219 0.656809 0.657406 0.65801 0.658619
0.659234 0.659855 0.660481 0.661112 0.661746 0.662383 0.66302 0.663658 0.6643
0.664968 0.665702 0.666528 0.667435 0.668403 0.669417 0.670469 0.671519 0.672576
0.673626 0.67465 0.675628 0.676532 0.677341 0.678036 0.678582 0.679005 0.679315
0.67953 0.679671 0.679756 0.679803 0.679825 0.679808 0.679792 0.679775 0.679759
0.679742 0.679726 0.679709 0.679692 0.679675 0.679658 0.679641 0.679624 0.679607
0.679589 0.679572 0.679554 0.679537 0.679519 0.679501 0.679483 0.679465 0.679447
0.679429 0.679411 0.679392 0.679373 0.679355 0.679336 0.679317 0.679298 0.679278
0.679259 0.679239 0.679219 0.679199 0.679179 0.679159 0.679138 0.679117 0.679097
0.679075 0.679054 0.679033 0.679011 0.678989 0.678967 0.678945 0.678922 0.678899
0.678876 0.678853 0.678829 0.678806 0.678781 0.678757 0.678733 0.678708 0.678682
0.678657 0.678631 0.678605 0.678579 0.678552 0.678525 0.678498 0.67847 0.678442
0.678414 0.678386 0.678357 0.678327 0.678298 0.678268 0.678237 0.678207 0.678176
0.678144 0.678112 0.67808 0.678048 0.678015 0.677981 0.677948 0.677914 0.677879
0.677844 0.677809 0.677774 0.677738 0.677701 0.677665 0.677628 0.67759 0.677553
0.677515 0.677476 0.677438 0.677399 0.677359 0.67732 0.67728 0.67724 0.6772
0.677159 0.677119 0.677078 0.677037 0.676996 0.676955 0.676913 0.676872 0.676831
0.67679 0.676749 0.676707 0.676667 0.676626 0.676585 0.676545 0.676505 0.676465
0.676426 0.676388 0.676349 0.676312 0.676275 0.676238 0.676203 0.676168 0.676134
0.6761 0.676068 0.676037 0.676007 0.675978 0.67595 0.675923 0.675898 0.675873
0.675851 0.675829 0.67581 0.675791 0.675774 0.675759 0.675745 0.675733 0.675723
0.675714 0.675707 0.675701 0.675696 0.675693 0.675692 0.675692 0.675692 0.675693
0.675696 0.675701 0.675707 0.675714 0.675723 0.675733 0.675745 0.675759 0.675774
0.675791
