# vtk DataFile Version 3.0
Tracts generated with tensor 1
ASCII
DATASET POLYDATA
POINTS 42229 float
1.02803 14.1342 62.5758 1.1545 14.1211 62.4214 1.28124 14.1087 62.2672
1.40822 14.097 62.1131 1.53543 14.0863 61.9592 1.66282 14.0765 61.8053
1.79036 14.0678 61.6515 1.91807 14.0602 61.4978 2.04597 14.0538 61.3442
2.17405 14.0488 61.1906 2.30233 14.0452 61.0372 2.43078 14.043 60.8839
2.5594 14.0423 60.7308 2.68813 14.043 60.5777 2.81694 14.0449 60.4247
2.94573 14.0481 60.2718 3.0744 14.0522 60.1187 3.20284 14.0569 59.9655
3.33094 14.0621 59.812 3.4586 14.0674 59.6581 3.58578 14.0727 59.5038
3.71239 14.0777 59.3491 3.83839 14.0824 59.1938 3.96377 14.0866 59.0381
4.08856 14.0906 58.8818 4.21284 14.0942 58.7252 4.33672 14.0978 58.5682
4.46035 14.1014 58.411 4.5839 14.1052 58.2538 4.70753 14.1094 58.0967
4.83139 14.114 57.9397 4.9556 14.1191 57.783 5.08024 14.1246 57.6267
5.20546 14.1305 57.4709 5.33131 14.1365 57.3155 5.45783 14.1427 57.1608
5.58503 14.149 57.0066 5.71297 14.1555 56.853 5.84165 14.1621 56.7
5.97107 14.1689 56.5477 6.10124 14.176 56.396 6.23215 14.1835 56.245
6.36374 14.1914 56.0946 6.49597 14.1996 55.9448 6.62869 14.2082 55.7954
6.7617 14.2172 55.6463 6.89475 14.2264 55.4973 7.0275 14.2359 55.348
7.15957 14.2455 55.1981 7.29039 14.2555 55.0471 7.41945 14.2659 54.8947
7.54617 14.2767 54.7404 7.67003 14.2882 54.5837 7.79054 14.3003 54.4246
7.90732 14.3132 54.2627 8.0201 14.3268 54.0981 8.12874 14.3413 53.9308
8.23319 14.3566 53.761 8.33342 14.3725 53.5886 8.4294 14.3889 53.4139
8.52178 14.4058 53.2373 8.61076 14.4229 53.059 8.69649 14.4403 52.8792
8.77916 14.4575 52.6979 8.85897 14.4744 52.5153 8.93617 14.4908 52.3315
9.01105 14.5065 52.1467 9.08394 14.5214 51.9611 9.15517 14.5355 51.7747
9.22508 14.5488 51.5878 9.29396 14.5614 51.4005 9.36203 14.5734 51.2128
9.42944 14.5849 51.0248 9.49629 14.5957 50.8367 9.56264 14.6058 50.6483
9.62848 14.6152 50.4596 9.69379 14.6237 50.2708 9.75853 14.6314 50.0817
9.82269 14.6383 49.8924 9.88622 14.6444 49.7029 9.94911 14.6498 49.5131
10.0114 14.6547 49.3231 10.0729 14.659 49.1329 10.1339 14.6628 48.9424
10.1943 14.6663 48.7518 10.2543 14.6694 48.561 10.3139 14.6725 48.3701
10.3732 14.6754 48.1791 10.4323 14.6783 47.9881 10.4913 14.6813 47.797
10.5503 14.6843 47.6059 10.6092 14.6876 47.4148 10.6681 14.6911 47.2238
10.7272 14.6948 47.0327 10.7865 14.6986 46.8417 10.8463 14.7023 46.6509
10.9068 14.7055 46.4603 10.9681 14.7078 46.27 11.0307 14.7088 46.08
11.0947 14.708 45.8905 11.1603 14.705 45.7016 11.2278 14.6992 45.5135
11.2973 14.6901 45.3261 11.3686 14.6774 45.1397 11.4417 14.6603 44.9543
11.5164 14.6387 44.77 11.5923 14.6123 44.5869 11.6694 14.5808 44.4051
11.7477 14.5445 44.2247 11.8271 14.5035 44.0458 11.9078 14.4581 43.8685
11.9896 14.4086 43.6928 12.0729 14.3556 43.5189 12.1576 14.2997 43.3465
12.2437 14.2415 43.1757 12.3312 14.1817 43.0061 12.4201 14.1207 42.8376
12.5105 14.0591 42.6702 12.6024 13.9972 42.5037 12.6956 13.9353 42.3379
12.7902 13.8736 42.1729 12.886 13.8121 42.0084 12.9828 13.7508 41.8444
13.0802 13.6895 41.6809 13.1779 13.6281 41.5176 13.2757 13.5662 41.3544
13.3732 13.5038 41.1914 13.4702 13.4408 41.0282 13.5663 13.3772 40.8647
13.6612 13.3129 40.7008 13.7546 13.248 40.5363 13.846 13.1823 40.371
13.9354 13.1161 40.2048 14.0224 13.0493 40.0376 14.1069 12.9818 39.8693
14.189 12.9139 39.7 14.2686 12.8457 39.5297 14.3457 12.777 39.3584
14.4203 12.708 39.1862 14.4924 12.6385 39.0131 14.5619 12.5684 38.8391
14.6285 12.4978 38.6642 14.6922 12.4264 38.4886 14.7525 12.3542 38.3121
14.8091 12.2809 38.1348 14.8618 12.2065 37.9568 14.9102 12.1307 37.7782
14.9539 12.0532 37.5991 14.9922 11.9737 37.4196 15.0249 11.892 37.24
15.0513 11.8075 37.0607 15.0711 11.7201 36.8819 15.0842 11.6299 36.7038
15.0905 11.5371 36.5268 15.0903 11.4421 36.3508 15.0835 11.3453 36.1759
15.0701 11.247 36.0022 15.0498 11.1477 35.8298 15.0225 11.0478 35.6587
14.9878 10.9477 35.4891 14.9457 10.848 35.3209 14.8962 10.7492 35.1542
14.8391 10.6515 34.9893 14.7746 10.5553 34.8263 14.7033 10.4605 34.6652
14.6257 10.3673 34.5062 14.5424 10.2755 34.3493 14.4539 10.1852 34.1943
14.3609 10.0961 34.0412 14.2642 10.0083 33.8898 14.1644 9.92166 33.7397
14.0621 9.83595 33.5907 13.9581 9.75111 33.4425 13.8526 9.66716 33.2947
13.7462 9.58413 33.1471 13.6394 9.50177 32.9995 13.5324 9.42015 32.8515
13.4252 9.33931 32.7032 13.3181 9.25929 32.5545 13.2109 9.18051 32.4052
13.1035 9.10308 32.2553 12.9957 9.02706 32.1049 12.8873 8.95248 31.9543
12.7779 8.87926 31.8038 12.6672 8.80724 31.6535 12.5549 8.73617 31.5041
12.4407 8.66573 31.3558 12.3245 8.59531 31.2091 12.2059 8.5246 31.0644
12.0847 8.45332 30.9221 11.9607 8.3813 30.7827 11.8337 8.3085 30.6465
11.7034 8.23486 30.5138 11.5698 8.16044 30.3849 11.433 8.08576 30.2596
11.2932 8.01101 30.1376 11.1507 7.93625 30.0189 11.006 7.86145 29.9028
10.8597 7.78643 29.7889 10.7124 7.71092 29.6766 10.5649 7.63399 29.5657
10.4177 7.55518 29.4555 10.2713 7.47408 29.346 10.1261 7.3903 29.2369
9.98237 7.30348 29.1283 9.84003 7.21401 29.02 9.69902 7.12201 28.912
9.55911 7.02774 28.8046 9.41998 6.93153 28.6979 9.28123 6.83381 28.5921
9.14238 6.73513 28.4873 9.00293 6.63613 28.3836 8.86229 6.53769 28.281
8.71984 6.44089 28.1793 8.57487 6.34724 28.0782 8.42662 6.2588 27.9773
8.27469 6.17682 27.8763 8.11832 6.1042 27.7749 7.95744 6.04188 27.6738
7.79246 5.9891 27.5738 7.62401 5.94408 27.4758 7.45266 5.90488 27.3804
7.27883 5.86988 27.2879 7.10281 5.83785 27.1985 6.92482 5.80796 27.1123
6.74504 5.77962 27.0294 6.56365 5.75245 26.9497 6.38092 5.72635 26.8727
6.19704 5.70108 26.7982 6.01217 5.67648 26.7259 5.82643 5.65236 26.6558
5.63992 5.62852 26.5876 5.45269 5.60473 26.5215 5.26479 5.58075 26.4573
5.07627 5.55635 26.3951 4.88716 5.53128 26.3351 4.69757 5.50522 26.2769
4.50757 5.47793 26.2208 4.31719 5.44922 26.1666 4.12645 5.41895 26.1146
3.93539 5.387 26.0649 3.74404 5.35327 26.0175 3.55243 5.31771 25.9725
3.36061 5.2803 25.93 3.16863 5.24107 25.89 2.97655 5.2002 25.8521
2.78442 5.15775 25.8163 2.59225 5.11381 25.7825 2.40008 5.06844 25.7507
2.20793 5.0217 25.7208 2.01581 4.97364 25.6928 1.82373 4.92432 25.6669
1.6317 4.87376 25.643 1.43972 4.82218 25.6211 1.24777 4.76962 25.6013
1.05587 4.71613 25.5836 0.864026 4.66175 25.5681 0.672237 4.60655 25.5551
0.480512 4.5506 25.5446 0.288853 4.494 25.5366 0.0972524 4.43689 25.5313
-0.0943071 4.37946 25.5287 -0.285857 4.32194 25.5285 -0.47742 4.2645 25.5306
-0.669019 4.2073 25.5348 -0.860671 4.15044 25.5408 -1.05238 4.09396 25.5484
-1.24415 4.03786 25.5571 -1.43597 3.98203 25.5666 -1.62781 3.92636 25.5765
-1.81965 3.87068 25.5863 -2.01152 3.81522 25.5968 -2.20345 3.76016 25.6083
-2.39548 3.70573 25.6211 -2.58762 3.65213 25.6355 -2.77987 3.5995 25.6519
-2.97223 3.54796 25.6703 -3.16467 3.4976 25.6911 -3.35714 3.44844 25.7143
-3.54957 3.40047 25.7402 -3.74187 3.3536 25.7689 -3.93397 3.30767 25.8003
-4.12578 3.26251 25.8345 -4.31724 3.21797 25.8714 -4.50829 3.17388 25.9109
-4.69887 3.13012 25.9528 -4.88896 3.08654 25.9972 -5.07852 3.04301 26.0438
-5.26748 2.99944 26.0927 -5.45584 2.95572 26.1438 -5.64358 2.9118 26.197
-5.83069 2.86762 26.2521 -6.01717 2.8232 26.3091 -6.20298 2.77862 26.3682
-6.38808 2.73379 26.4292 -6.57244 2.68897 26.4925 -6.75602 2.64447 26.5582
-6.93873 2.60066 26.6268 -7.12055 2.55784 26.6982 -7.30146 2.51623 26.7727
-7.48144 2.47593 26.85 -7.66048 2.43685 26.9301 -7.83858 2.39871 27.0127
-8.0157 2.36101 27.0976 -8.19182 2.32298 27.1844 -8.36689 2.28359 27.2728
-8.5408 2.24179 27.3622 -8.71344 2.19603 27.4522 -8.88455 2.14453 27.5421
-9.05371 2.08534 27.6309 -9.22025 2.01659 27.7177 -9.3834 1.9371 27.8017
-9.54258 1.84704 27.8826 -9.69779 1.74785 27.9606 -9.84945 1.64155 28.0361
-9.9981 1.52977 28.1096 -10.1439 1.41336 28.1816 -10.288 1.29443 28.2531
-10.4306 1.17392 28.3247 -10.5722 1.05259 28.3971 -10.7129 0.931026 28.4707
-10.8528 0.809628 28.546 -10.9921 0.688601 28.6233 -11.1304 0.567958 28.7027
-11.2677 0.447526 28.7843 -11.4037 0.326963 28.8678 -11.538 0.205797 28.953
-11.6705 0.0834688 29.0395 -11.801 -0.040184 29.1272 -11.9291 -0.166033 29.2152
-12.0547 -0.294684 29.3028 -12.1777 -0.426532 29.3894 -12.298 -0.561779 29.4744
-12.4158 -0.700443 29.5575 -12.5311 -0.842384 29.6384 -12.6442 -0.987329 29.7171
-12.7554 -1.1349 29.7937 -12.8645 -1.28511 29.8681 -12.9721 -1.43733 29.9406
-13.0787 -1.59099 30.0115 -13.1846 -1.74556 30.0814 -13.2904 -1.90061 30.1505
-13.3963 -2.05574 30.2192 -13.5026 -2.21043 30.2882 -13.6096 -2.36453 30.3576
-13.7171 -2.51798 30.4275 -13.8252 -2.67075 30.4981 -13.9338 -2.82284 30.5693
-14.0429 -2.9743 30.6412 -14.1523 -3.12521 30.7136 -14.2621 -3.27563 30.7865
-14.3722 -3.42564 30.8599 -14.4824 -3.57542 30.9335 -14.5925 -3.72506 31.0076
-14.7024 -3.87463 31.082 -14.812 -4.02419 31.157 -14.921 -4.17377 31.2328
-15.0292 -4.32342 31.3096 -15.1366 -4.47295 31.3877 -15.2431 -4.62243 31.4672
-15.3483 -4.77219 31.5479 -15.4522 -4.9221 31.6299 -15.555 -5.07202 31.7134
-15.6567 -5.22181 31.7983 -15.7576 -5.37134 31.8846 -15.8578 -5.52047 31.9725
-15.9575 -5.66908 32.0619 -16.0566 -5.81707 32.1528 -16.1553 -5.96434 32.2454
-16.2535 -6.11083 32.3397 -16.3512 -6.25647 32.4359 -16.4481 -6.40115 32.5342
-16.5442 -6.54476 32.635 -16.6391 -6.6871 32.7385 -16.7326 -6.82791 32.8454
-16.8245 -6.96666 32.9564 -16.9145 -7.10306 33.0717 -17.0025 -7.23675 33.1916
-17.088 -7.3675 33.3165 -17.1708 -7.49494 33.4465 -17.2507 -7.61883 33.5816
-17.3275 -7.73904 33.7218 -17.4008 -7.8556 33.8669 -17.4701 -7.96872 34.0166
-17.5348 -8.07871 34.1705 -17.5945 -8.18599 34.3285 -17.6483 -8.29099 34.4899
-17.6959 -8.39415 34.6545 -17.7367 -8.49597 34.8218 -17.7702 -8.5968 34.9912
-17.796 -8.69703 35.1624 -17.814 -8.79693 35.3347 -17.8244 -8.89676 35.5077
-17.8275 -8.99671 35.6809 -17.8236 -9.09696 35.8539 -17.8131 -9.19765 36.0264
-17.7965 -9.29891 36.198 -17.7741 -9.40087 36.3686 -17.7465 -9.50364 36.538
-17.7142 -9.60735 36.7059 -17.6775 -9.71217 36.8723 -17.6372 -9.81819 37.037
-17.5937 -9.92551 37.2 -17.5475 -10.0342 37.3615 -17.4994 -10.1444 37.5212
[...]
POINT_DATA 42229
FIELD FieldData 1
norm 1 42229 float
25770.4 25695 25618.6 25541.3 25462.9 25383.5 25303.3 25222.1 25140.3
25057.6 24974.4 24890.5 24806 24721.1 24635.7 24550 24463.9 24377.6
24291 24204.4 24117.7 24031 23944.2 23857.4 23770.6 23683.6 23596.4
23509 23421.1 23332.9 23244.3 23155.2 23065.8 22976.1 22886.3 22796.3
22706.3 22616.3 22526.4 22436.8 22347.4 22258.5 22169.9 22081.8 21994.3
21907.3 21820.8 21734.8 21649.3 21564.2 21479.5 21395 21310.7 21226.5
21142.2 21057.8 20973.2 20888.3 20803.3 20718 20632.7 20547.5 20462.5
20378 20294.2 20211.6 20130.4 20051 19973.3 19897.5 19823.6 19751.6
19681.6 19613.5 19547.7 19484.2 19423.3 19365 19309.5 19256.7 19206.6
19159.6 19115.4 19073.5 19033.2 18993.2 18952.7 18910.4 18865.2 18815.9
18761.8 18702.3 18637.5 18567.9 18494.3 18418.2 18340.4 18262.1 18184.1
18107.3 18032.4 17960 17890.7 17825 17763 17705 17650.7 17599.5
17550.9 17504.1 17458.4 17412.6 17365.7 17316.7 17264.6 17208.2 17146.7
17079.3 17005.3 16924.7 16837.8 16745.2 16648.1 16547.5 16444.5 16340
16234.7 16129 16023.4 15918.3 15813.8 15710.1 15607.3 15505.5 15404.6
15304.5 15205.1 15106.4 15008.4 14911 14814.4 14718.3 14623 14528.3
14434.2 14340.7 14248.1 14156.8 14066.9 13979.6 13895.3 13814.6 13737.6
13664.3 13594.6 13528 13464.3 13402.7 13342.8 13283 13222.7 13161.4
13099 13035.7 12971.8 12907.3 12842.3 12776.6 12709.8 12641.4 12571.3
12499.1 12424.5 12347.1 12267.6 12186 12102.6 12017.5 11929.8 11839.5
11746.8 11651.7 11554.6 11455.8 11355.8 11255 11154.4 11054.3 10954.9
10856.1 10757.7 10659.4 10560.9 10460.8 10358.6 10254.2 10147.8 10039.5
9929.87 9819.95 9710.2 9601.07 9493.13 9387.27 9283.13 9181.24 9082.25
8986.95 8896.23 8810.94 8731.6 8658.07 8588.75 8519.88 8444.91 8359.99
8257.62 8139.29 8011.3 7879.16 7745.63 7611.72 7477.7 7343.62 7209.5
7075.32 6941.1 6806.81 6672.4 6537.82 6402.96 6267.76 6132.14 5996.01
5859.29 5721.92 5583.79 5444.78 5304.76 5163.56 5021.05 4877.08 4731.56
4584.38 4435.54 4285.01 4132.72 3978.59 3822.54 3664.47 3504.26 3341.77
3176.91 3009.54 2839.56 2666.87 2491.42 2313.2 2132.23 1948.56 1762.29
1573.54 1382.45 1189.2 994.022 797.184 598.997 399.814 200.02 0.0316228
200.02 399.814 598.997 797.182 994.012 1189.17 1382.36 1573.34 1761.9
1947.86 2131.03 2311.26 2488.45 2662.5 2833.35 3000.99 3165.43 3326.74
3485.03 3640.38 3793.02 3943.19 4091.17 4237.25 4381.72 4524.84 4666.81
4807.8 4947.89 5087.2 5225.78 5363.71 5501.04 5637.84 5774.17 5910.14
6045.87 6181.5 6317.18 6452.76 6587.28 6718.02 6840.45 6950.86 7049.39
7139.39 7224.24 7304.74 7386.75 7471.81 7560.78 7653.9 7750.86 7851.02
7953.58 8057.7 8162.64 8267.76 8372.49 8477.67 8582.14 8685.21 8786.45
8885.63 8982.75 9078.08 9172.14 9265.65 9358.03 9450.52 9544.18 9639.76
9737.34 9837.04 9939.54 10044.1 10150.2 10257.3 10364.7 10472.1 10578.9
10684.8 10789.4 10892 10992.7 11091.6 11189 11285.6 11381.9 11479.3
11577.8 11677 11777 11877.9 11979.3 12081.3 12183.5 12285.8 12387.9
12489.8 12591.2 12692.3 12793 12893.3 12993.4 13093.2 13192.2 13290.1
13386.3 13480.1 13571.2 13659.3 13744.7 13828.1 13910.6 13993.4 14077.5
14163.7 14252.6 14344.4 14438.9 14535.9 14634.9 14735.5 14837.3 14939.9
15043.1 15146.5 15250.2 15354 15457.9 15562.1 15666.7 15772.2 15878.8
15986.9 16096.7 16208.3 16321.6 16436.4 16552.6 16669.6 16787.1 16904.6
17021.5 17137 17250.4 17360.5 17466.3 17566.7 17660.8 17748.4 17829.6
17905.3 17975.9 18043.4 18110.2 18178.2 18249.1 18323.6 18402.1 18484.2
18569 18655.4 18742 18827.4 18910.1 18988.5 19060.9 19125.1 19179.6
19224.1 19258.8 19284.9 19304.1 19318.2 19328.7 19337.2 19344.5 19350.3
19355.8 19362.3 19370.9 19382.7 19398.5 19419.1 19445.2 19477 19514.7
19558.1 19607.2 19661.7 19721.1 19784.6 19851.3 19920.2 19990.4 20060.7
20130.2 20197.8 20263.1 20325.5 20385 25222.7 25138.7 25054.9 24971.4
24888.1 24805.1 24722.1 24639.2 24556.2 24472.9 24389.1 24304.8 24219.8
24134 24047.4 23960.2 23872.2 23783.8 23694.9 23605.9 23516.7 23427.7
23338.8 23250.3 23162.1 23074.3 22986.9 22899.7 22812.5 22725.4 22638.1
22550.6 22462.7 22374.4 22285.8 22196.7 22107.2 22017.3 21927 21836.4
21745.4 21654.1 21562.6 21470.8 21378.8 21286.6 21194.3 21101.9 21009.5
20917 20824.7 20732.5 20640.5 20548.9 20457.9 20367.6 20278.4 20190.5
20104.1 20019.3 19936.2 19854.9 19775.6 19698.6 19624.3 19553.2 19485.8
19422.9 19364.6 19311.5 19263.7 19221.1 19183.1 19148.7 19116.3 19084.3
19050.8 19014.9 18976.1 18933.8 18888 18838.5 18785.4 18728.9 18669.7
18608.5 18546.7 18485.4 18425.5 18368.1 18314 18264.1 18219.1 18179.3
18144.8 18115.1 18089.9 18068 18047.8 18027.5 18004.9 17977.4 17942.3
17897.5 17841.2 17773.2 17695.3 17608.9 17515.9 17418.1 17316.9 17213.5
17108.9 17003.9 16899.3 16795.9 16694.4 16595.7 16499.5 16405.9 16314.5
16224.7 16135.9 16047.5 15958.8 15869.4 15778.9 15687.8 15595.9 15503.2
15409.7 15315.2 15219.8 15123.5 15026.7 14929.6 14833 14737.3 14643
14550.6 14460.4 14372.6 14287.4 14204.7 14124.5 14046.6 13970.8 13896.7
13823.8 13751.7 13679.8 13607.7 13535.1 13461.8 13388 13314.2 13240.6
13167.7 13095.5 13023.9 12952.9 12881.9 12810 12736.6 12661 12582.6
12501.5 12417.6 12330.8 12241.2 12148.9 12054 11956.8 11857.4 11756.2
11653.6 11549.3 11443.8 11337.8 11231.7 11126.1 11021.1 10917 10813.8
10711.2 10608.8 10505.7 10401.6 10296 10188 10077.3 9964.93 9851.1
9736.2 9620.59 9504.6 9388.57 9272.95 9158.45 9044.57 8931.38 8818.86
8706.81 8594.63 8481.01 8363.77 8242.66 8116.14 7984.48 7849.55 7713.05
7576.28 7439.68 7303.27 7166.92 7030.49 6893.91 6757.13 6620.15 6482.98
6345.65 6208.15 6070.46 5932.51 5794.26 5655.6 5516.46 5376.76 5236.4
5095.31 4953.37 4810.45 4666.4 4521.07 4374.3 4225.97 4075.96 3924.27
3770.8 3615.49 3458.25 3298.97 3137.53 2973.79 2807.61 2638.85 2467.39
2293.11 2115.92 1935.77 1752.64 1566.59 1377.73 1186.24 992.35 796.38
598.703 399.754 200.02 0.0316228 200.02 399.754 598.703 796.382 992.356
1186.26 1377.79 1566.71 1752.87 1936.16 2116.51 2293.89 2468.29 2639.72
2808.16 2973.64 3136.21 3295.98 3453.07 3607.65 3759.9 3910.02 4058.16
4204.58 4349.51 4493.2 4635.86 4777.7 4918.91 5059.66 5200.12 5340.44
5480.83 5621.52 5762.76 5904.73 6047.42 6190.46 6333.2 6475.09 6616.59
6758.31 6900.81 7044.25 7188.35 7332.67 7476.76 7620.21 7762.67 7903.74
8043.26 8180.73 8315.78 8448.23 8578.1 8705.66 8831.37 8955.87 9079.83
9203.85 9328.56 9453.46 9578.58 9703.81 9828.97 9953.88 10078.3 10202.2
10325.3 10447.4 10568.4 10688.2 10806.6 10923.6 11039.4 11154.1 11268.1
11381.5 11494.4 11606.4 11717.1 11825.2 11928.5 12024.3 12109.6 12182.2
12241 12286.6 12321.1 12347.8 12369.9 12389.9 12409.5 12428.1 12446.3
12464.2 12481.9 12499.2 12515.9 12531.8 12547.2 12562 12575.5 12588.5
12601.7 12615.9 12631.7 12649.7 12670.3 12693.9 12720.9 12750.9 12784.6
12822.1 12863.9 12909.9 12960 13014 13071.7 13132.8 13197.3 13264.9
13335.6 13409 13485 13563.3 13643.5 13725.4 13808.8 13893.4 13979
14065.5 14152.6 14240.1 14328 14416.1 14504.1 14592.1 14679.8 14767.1
14854.1 14940.6 15026.5 15111.9 15196.5 15280.4 15363.5 15445.9 15527.6
15608.7 15689.6 15770.5 15851.6 15933.1 16014.9 16097.3 16180 16262.9
25487.9 25400 25312.1 25224.3 25136.4 25048.7 24961 24873.4 24786
24698.8 24611.8 24525 24438.3 24351.7 24265.1 24178.5 24091.8 24004.8
23917.5 23829.9 23741.9 23653.7 23565.1 23476.3 23387.5 23298.6 23209.8
23121.2 23032.9 22945 22857.7 22770.9 22684.8 22599.2 22514.2 22429.6
22345.3 22261.3 22177.5 22093.7 22010.1 21926.5 21842.8 21759.2 21675.4
21591.4 21507.1 21422.6 21337.7 21252.5 21167 21081.3 20995.5 20909.6
20823.7 20738 20652.3 20566.8 20481.4 20396.1 20310.8 20225.6 20140.2
20054.8 19969.2 19883.5 19797.7 19711.8 19626 19540.4 19455.2 19370.5
19286.6 19203.6 19121.9 19041.7 18963.4 18887 18812.9 18741.2 18672
18605.3 18541.4 18480.1 18421.7 18366.2 18313.9 18265.1 18220.8 18181.7
18148.9 18123.6 18107.2 18101.1 18106.5 18124.7 18155.7 18198.6 18252.9
18316 18384.6 18454.4 18520.5 18577.7 18621.6 18648.4 18656 18643.5
18610.9 18560.9 18495.3 18416.4 18326.3 18227.1 18120.6 18008.5 17892.5
17773.7 17653.2 17531.9 17410.4 17289.2 17168.4 17048.5 16929.4 16811.6
16695.2 16580.4 16467.3 16356.3 16247.3 16140.2 16034.9 15930.9 15827.9
15725.5 15623.3 15521 15418.5 15315.8 15213 15110.1 15007.2 14904.7
14802.8 14701.9 14602.3 14504.4 14408.7 14315.7 14225.9 14139.7 14057.3
13978.5 13902.6 13828.9 13756.2 13683.6 13610 13534.6 13457 13377
13294.7 13210.1 13123.4 13035.2 12945.8 12855.1 12763.2 12670 12575.5
12479.6 12382.1 12282.8 12181.8 12079 11975 11870 11764.1 11657.7
11550.8 11443.6 11336.3 11228.6 11120.6 11011.8 10902 10791.2 10679.6
10567.6 10455.3 10343 10231.1 10119.9 10009.6 9900.34 9792.2 9685.27
9578.57 9471.66 9364.17 9255.87 9147.96 9041.02 8935.84 8833.44 8735.05
8642.21 8556.91 8477.54 8402.77 8328.86 8248.91 8154.81 8043.38 7918.79
7787.26 7653.11 7517.99 7382.51 7246.81 7110.89 6974.71 6838.21 6701.37
6564.16 6426.6 6288.7 6150.47 6011.91 5873.02 5733.78 5594.16 5454.09
5313.5 5172.32 5030.48 4887.89 4744.45 4600.13 4454.81 4308.39 4160.76
4011.81 3861.43 3709.54 3556.06 3400.95 3244.19 3085.72 2925.42 2763.18
2598.81 2432.08 2262.76 2090.59 1915.36 1736.87 1555 1369.72 1181.13
989.434 794.966 598.183 399.648 200.02 0.0316228 200.02 399.648 598.183
794.976 989.479 1181.28 1370.09 1555.76 1738.25 1917.61 2093.94 2267.39
2438.12 2606.3 2772.09 2935.63 3097.04 3256.37 3413.74 3569.24 3722.96
3875 4025.47 4174.44 4322 4468.23 4613.18 4756.97 4899.72 5041.57
5182.66 5323.12 5463.07 5602.63 5741.85 5880.84 6019.63 6158.29 6296.83
6435.31 6573.75 6712.2 6850.69 6989.26 7127.93 7266.77 7405.8 7545.04
7684.51 7824.26 7964.36 8104.88 8245.89 8387.41 8529.29 8671.19 8812.48
8952.41 9090.36 9226.14 9360.09 9492.94 9625.71 9758.79 9892.39 10026.5
10160.5 10294.4 10427.9 10560.9 10693 10824 10953.3 11080.1 11203.5
11322.2 11434.9 11539.8 11634.8 11717.6 11786.4 11840 11877.4 11901.3
11915.2 11922.6 11926.6 11929.4 11932.7 11937.6 11945 11953.8 11965
11979.1 11996 12015.7 12037.8 12061.6 12086.7 12111.8 12137.1 12162.7
12189.1 12217 12246.6 12278.6 12313.1 12350.7 12391 12434.7 12482.5
12534.5 12591 12651.9 12717.1 12786.2 12859 12935.3 13014.9 13097.4
13182.7 13270.3 13360.1 13451.6 13544.8 13639.2 13734.8 13831.4 13928.8
14026.9 14125.6 14224.8 14324.4 14424.4 14524.7 14625.3 14726.2 14827.4
14929 15030.8 15133 15235.6 15338.6 15441.9 15545.6 15649.5 15753.5
15857.6 15961.5 16065 16167.8 16269.5 16369.5 16467.2 16562.2 16654
16742.5 16827.4 16908.5 16985.7 17058.7 17127.6 17191.5 17250.9 17306.9
17360.5 17413.2 17466.7 17522 17580.1 17641.6 17706.6 17774.7 17845.9
17919.7 17996 18074.5 18155.2 18237.7 18321.9 18407.5 18494.4 18582.3
18671.2 18760.7 18850.9 18941.6 19032.6 19123.9 19215.3 19306.9 19398.5
19490.1 19581.7 19673.3 19764.8 19856.3 19947.8 20039.3 20130.9 20222.5
20314.2 20406 20497.9 20589.8 20681.9 20774 20866.3 20958.7 21051.4
21144.2 21237.4 21330.9 21424.9 21519.2 21613.9 21708.8 21804 21899.3
21994.7 22090 22185.3 22280.8 22376.4 22472.2 22568.3 22664.7 22761.3
22857.9 22954.4 23050.4 23145.8 23240.3 23333.9 23426.5 23517.7 23607.1
23694.4 23779.4 23862.3 23943.5 24023.5 24102.5 24180.9 24259.2 24337.7
24416.7 24496.4 24577 24658.6 24741.2 24824.6 24908.8 24993.6 25078.8
25164.1 25249.4 25334.5 25419.1 25503.3 25586.7 25669.4 25751.3 25832.7
25913.7 25994.8 26076.3 26158.4 26241.4 26325.4 26410.2 26495.7 26581.7
26667.9 26754.4 26840.9 26927.4 27013.7 27099.7 27185.3 27270.3 27354.6
27438.3 27521.2 27603.3 27684.6 27765 27844.5 27923 28000.4 28076.8
28152.3 28227.1 28301 28374.4 24868.2 24800.5 24731.1 24659.9 24587
24512.5 24436.3 24358.7 24279.9 24200.1 24119.5 24038.3 23956.5 23874.4
23792 23709.4 23626.6 23543.7 23460.6 23377.3 23293.9 23210.3 23126.5
23042.6 22958.5 22874.2 22789.6 22704.8 22619.6 22534 22448 22361.6
22274.8 22187.5 22099.9 22012 21923.9 21835.9 21747.9 21660.2 21572.9
21486.1 21399.8 21314.1 21229.1 21144.6 21060.5 20976.8 20893.2 20809.7
20726 20642.2 20558 20473.6 20388.8 20303.8 20218.6 20133.5 20048.5
19963.9 19880.1 19797.3 19715.7 19635.7 19557.2 19480.5 19405.6 19332.3
19260.6 19190.4 19121.8 19054.6 18988.7 18924.2 18861.1 18799.6 18739.6
18681.2 18624.4 18568.7 18514 18459.6 18404.7 18348 18288.5 18225.3
18157.7 18085.5 18008.9 17928.8 17845.9 17760.9 17674.3 17586.6 17498.2
17409.5 17321.1 17233 17145.9 17059.9 16975.4 16892.4 16811.3 16732
16654.5 16578.4 16503.3 16428.1 16352.2 16274.6 16194.7 16111.8 16025.8
15936.5 15844.1 15749.1 15651.9 15553.1 15453.2 15352.6 15251.7 15150.8
15050.3 14950.4 14851.2 14752.8 14655.3 14558.8 14462.9 14367.6 14272.6
14178.1 14084 13990.4 13897.6 13805.4 13714.2 13623.7 13533.8 13444.3
13355.1 13266.3 13177.6 13089.4 13001.6 12914.5 12828.2 12743 12658.9
12575.9 12494 12413 12332.6 12252.7 12173 12093.2 12013.2 11932.8
11852.2 11771.8 11691.7 11612.2 11533.7 11456.2 11379.8 11304.4 11229.8
11155.8 11082 11007 10930.1 10851.3 10770.5 10687.2 10601.3 10512.8
10421.7 10328.4 10233.2 10136.5 10038.7 9940.35 9841.62 9743.29 9645.59
9547.53 9448.82 9349.11 9248.15 9146.03 9042.86 8938.91 8834.51 8730.02
8625.76 8522.08 8419.35 8317.87 8218.04 8120.46 8025.88 7935.29 7849.81
7770.68 7699.07 7635.96 7581.8 7536.39 7498.68 7466.59 7436.75 7401.36
7352.93 7282.91 7189.4 7074.17 6945.44 6810.72 6673.88 6536.37 6398.67
6260.91 6123.11 5985.2 5847.01 5708.39 5569.18 5429.24 5288.44 5146.69
5003.89 4859.99 4714.91 4568.52 4420.69 4271.27 4120.09 3967 3811.86
3654.55 3495.04 3333.23 3169.05 3002.41 2833.22 2661.39 2486.84 2309.51
2129.39 1946.49 1760.86 1572.6 1381.87 1188.87 993.848 797.104 598.968
399.808 200.02 0.0316228 200.02 399.808 598.969 797.109 993.87 1188.94
1382.07 1573.04 1761.71 1947.97 2131.74 2313 2491.72 2667.91 2841.56
3012.67 3181.23 3347.2 3510.56 3671.32 3829.51 3985.16 4138.35 4289.16
4437.68 4584 4728.29 4870.76 5011.65 5151.19 5289.61 5427.14 5563.97
5700.25 5836.11 5971.68 6107.11 6242.59 6378.31 6514.42 6650.86 6786.88
6920.39 7049.18 7171.84 7289.37 7403.86 7516.88 7629.15 7740.82 7851.85
7962.17 8071.81 8180.88 8291 8401.53 8512.06 8622.24 8731.83 8840.58
8946.91 9050.9 9152.63 9252.16 9349.71 9445.6 9541.71 9637.86 9734.25
9831.24 9928.86 10027.6 10127.6 10229 10331.9 10436.2 10541.9 10648.9
10757.5 10867.3 10978.1 11089.6 11201.5 11313.6 11425.5 11536.8 11647.2
11756.4 11863.6 11968.8 12071.6 12171.7 12268.9 12362.7 12452.5 12537.4
12616.1 12687.5 12750 12802.1 12841.2 12867 12879.8 12881.1 12872.9
12857.5 12837.5 12815.2 12793.1 12772.4 12756.6 12748.5 12750 12762.4
12785.9 12819.8 12863.3 12915 12973.9 13038.9 13108.9 13183 13260.6
13341 13423.6 13508.1 13594.1 13681.3 13769.5 13858.5 13948.2 14038.5
14129.4 14220.7 14312.4 14404.5 14496.9 14589.6 14682.6 14775.8 14869
14962.3 15055.6 15148.7 15241.3 15333.5 15425.1 15515.8 15605.5 15694.2
15781.6 15867.6 15952.2 16035.2 24750.7 24684.1 24616 24546.5 24475.8
24404 24331.1 24257.5 24183.1 24108.2 24032.8 23956.9 23880.7 23804.1
23727.1 23649.5 23571.4 23492.7 23413.3 23333.1 23252.2 23170.5 23088
23004.7 22920.7 22836.1 22750.8 22665 22578.8 22492.1 22405.1 22317.8
22230.2 22142.3 22054.3 21966 21877.6 21789 21700.3 21611.6 21523
21434.4 21345.9 21257.6 21169.3 21081.1 20993.1 20905.2 20817.4 20729.7
20642.1 20554.7 20467.6 20380.8 20294.4 20208.5 20123 20038.2 19953.7
19869.8 19786.2 19702.9 19619.9 19537 19454.3 19371.8 19289.8 19208.3
19127.3 19047.2 18968 18890 18813.5 18738.7 18665.9 18595.3 18526.8
18460.2 18395.3 18331.5 18268.1 18204.5 18140.1 18074.2 18006.5 17936.6
17864.7 17790.9 17715.2 17638.2 17560.3 17481.7 17402.7 17323.7 17245.2
17167.6 17091.4 17016.6 16943.6 16872.4 16802.8 16734.4 16666.6 16598.3
16528.8 16456.9 16381.8 16302.8 16219.8 16132.7 16041.8 15947.7 15851
15752.6 15652.9 15552.5 15451.9 15351.3 15251.1 15151.6 15052.8 14954.9
14857.9 14761.7 14666 14570.5 14475 14379.4 14283.7 14188 14092.5
13997.3 13902.7 13808.6 13715.1 13622 13529.2 13436.6 13344 13251.3
13158.5 13065.6 12972.7 12880 12787.6 12695.5 12603.8 12512.6 12421.9
12331.4 12241.1 12150.9 12060.7 11970.3 11879.7 11789.1 11698.5 11608.3
11518.6 11429.8 11342 11255.5 11170.4 11086.9 11005.1 10925 10846.4
10769.5 10693.2 10616.8 10539.6 10461 10380 10296.4 10210 10120.7
10028.7 9934.61 9838.87 9742.11 9645.49 9549.61 9453.94 9358.44 9262.83
9166.71 9069.67 8971.36 8871.59 8770.31 8667.63 8563.93 8459.5 8354.68
8249.94 8145.56 8042.07 7940.15 7840.67 7744.68 7653.43 7568.29 7490.6
7421.64 7362.38 7313.48 7274.76 7245.11 7219.45 7192.61 7157.13 7103.33
7022.16 6915.54 6791.49 6659.53 6524.9 6389.54 6253.98 6118.31 5982.43
5846.2 5709.42 5571.94 5433.58 5294.22 5153.73 5012 4868.96 4724.54
4578.67 4431.22 4282.06 4131.03 3977.99 3822.78 3665.29 3505.43 3343.13
3178.3 3010.87 2840.78 2667.99 2492.46 2314.17 2133.13 1949.4 1763.03
1574.15 1382.91 1189.52 994.217 797.281 599.033 399.821 200.02 0.0316228
200.02 399.821 599.033 797.285 994.238 1189.59 1383.11 1574.57 1763.84
1950.79 2135.36 2317.49 2497.16 2674.37 2849.09 3021.34 3191.1 3358.34
3523 3685.06 3844.5 4001.34 4155.6 4307.34 4456.63 4603.57 4748.21
4890.76 5031.41 5170.4 5307.99 5444.41 5579.88 5714.59 5848.71 5982.34
6115.66 6248.81 6382.01 6515.41 6648.94 6781.55 6910.04 7029.39 7136.87
7236.9 7333.36 7428.9 7524.66 7620.77 7716.87 7812.53 7907.39 8001.3
8094.34 8186.71 8280.43 8375.07 8470.39 8566.2 8660.54 8753.79 8846.15
8937.71 9028.54 9118.79 9208.78 9298.97 9389.48 9482.29 9577.38 9674.81
9774.58 9876.63 9980.76 10086.7 10194.4 10303.4 10413.6 10524.9 10637
10750.1 10863.7 10977.7 11092 11206.2 11320.2 11433.8 11546.4 11657.8
11768.2 11877.4 11985.8 12093.4 12200.3 12306.7 12412.5 12517.3 12620.8
12722 12820 12913.2 13000 13078.6 13146.4 13202.4 13246.9 13281.2
13307.1 13327.3 13343.3 13356.3 13367.1 13376 13382.4 13387.6 13393.2
13401 13412.5 13428.7 13450.7 13479.1 13514.2 13555.4 13602.7 13655.8
13714.2 13777.2 13844.4 13915.2 13989 14065.5 14144.5 14225.5 14308.5
14393.3 14479.4 14566.8 14655.1 14744 14833.3 14922.7 15011.7 15100.2
15187.9 15274.4 15359.4 15442.5 25157.2 25090.2 25021.2 24950.5 24878.2
24804.5 24729.7 24654 24577.6 24500.6 24423 24344.9 24266.3 24187.2
24107.6 24027.4 23946.8 23865.6 23783.8 23701.6 23619 23536.1 23453
23369.7 23286.3 23202.9 23119.6 23036.4 22953.5 22870.8 22788.4 22706.5
22625 22544 22463.6 22383.7 22304.4 22225.7 22147.4 22069.7 21992.2
21915 21837.8 21760.4 21682.5 21603.9 21524.4 21443.8 21362.1 21279.4
21195.5 21110.8 21025.4 20939.4 20853.2 20767 20681.2 20596.1 20512.1
20429.3 20348 20268.4 20190.4 20114.2 20039.6 19966.6 19895.1 19825
19756.3 19688.9 19622.9 19557.9 19493.8 19430.3 19367.3 19304.2 19240.9
19176.8 19111.2 19043.2 18972 18897 18817.7 18734.1 18646.4 18555.6
18462.1 18366.5 18269.2 18170.6 18071 17970.6 17869.8 17768.7 17667.9
17567.4 17467.4 17368.1 17269.7 17172.2 17075.7 16980.4 16886 16792.6
16699.8 16607.3 16514.7 16421.7 16327.8 16232.8 16136.5 16039 15940.2
15840.5 15740.1 15639.1 15537.8 15436.6 15335.5 15234.9 15134.9 15035.7
14937.5 14840.5 14744.7 14650.1 14556.7 14464.3 14373 14282.5 14193
14104.2 14016.1 13928.7 13841.8 13755.1 13668.7 13582.5 13496.5 13410.6
13324.8 13239.2 13153.8 13068.8 12984.2 12900.2 12816.7 12733.8 12651.6
12569.9 12488.7 12408 12327.5 12247.2 12167.2 12087.5 12008.1 11929.3
11851.2 11773.4 11695.7 11617.9 11539.6 11460.2 11379.7 11297.5 11213.5
11127.3 11039.3 10949.5 10857.9 10764.9 10670.7 10575.3 10479.1 10382.3
10285 10187.3 10088.9 9989.58 9889.47 9788.88 9687.95 9586.88 9485.99
9385.64 9286.23 9188.16 9091.82 8997.58 8905.84 8817.11 8730.69 8646.61
8564.89 8486.93 8413.35 8344.97 8282.87 8228.27 8182.56 8147.1 8123.09
8111.13 8110.9 8120.63 8136.82 8150.48 8154.03 8139.14 8097.65 8024.34
7924.86 7806.73 7678.47 7545.75 7411.37 7276.61 7141.97 7007.61 6873.46
6739.38 6605.17 6470.64 6335.64 6200.06 6063.79 5926.75 5788.91 5650.18
5510.46 5369.6 5227.41 5083.74 4938.43 4791.35 4642.4 4491.57 4338.82
4184.07 4027.28 3868.34 3707.17 3543.68 3377.75 3209.33 3038.34 2864.73
2688.48 2509.61 2328.17 2144.24 1957.9 1769.29 1578.55 1385.83 1191.32
995.212 797.753 599.204 399.856 200.02 0.0316228 200.02 399.856 599.204
797.751 995.204 1191.29 1385.76 1578.39 1768.97 1957.3 2143.2 2326.48